 -0.39999999999999997          0.0000000000000000     
 -0.39699999999999996          0.0000000000000000     
 -0.39399999999999996          0.0000000000000000     
 -0.39099999999999996          0.0000000000000000     
 -0.38799999999999996          0.0000000000000000     
 -0.38499999999999995          0.0000000000000000     
 -0.38199999999999995          0.0000000000000000     
 -0.37899999999999995          0.0000000000000000     
 -0.37599999999999995          0.0000000000000000     
 -0.37299999999999994          0.0000000000000000     
 -0.37000000000000000          0.0000000000000000     
 -0.36699999999999999          0.0000000000000000     
 -0.36399999999999999          0.0000000000000000     
 -0.36099999999999999          0.0000000000000000     
 -0.35799999999999998          0.0000000000000000     
 -0.35499999999999998          0.0000000000000000     
 -0.35199999999999998          0.0000000000000000     
 -0.34899999999999998          0.0000000000000000     
 -0.34599999999999997          0.0000000000000000     
 -0.34299999999999997          0.0000000000000000     
 -0.33999999999999997          0.0000000000000000     
 -0.33699999999999997          0.0000000000000000     
 -0.33399999999999996          0.0000000000000000     
 -0.33099999999999996          0.0000000000000000     
 -0.32799999999999996          0.0000000000000000     
 -0.32499999999999996          0.0000000000000000     
 -0.32199999999999995          0.0000000000000000     
 -0.31899999999999995          0.0000000000000000     
 -0.31599999999999995          0.0000000000000000     
 -0.31299999999999994          0.0000000000000000     
 -0.30999999999999994          0.0000000000000000     
 -0.30699999999999994          0.0000000000000000     
 -0.30399999999999994          0.0000000000000000     
 -0.30099999999999993          0.0000000000000000     
 -0.29799999999999993          0.0000000000000000     
 -0.29499999999999998          0.0000000000000000     
 -0.29199999999999998          0.0000000000000000     
 -0.28899999999999998          0.0000000000000000     
 -0.28599999999999998          0.0000000000000000     
 -0.28299999999999997          0.0000000000000000     
 -0.27999999999999997          0.0000000000000000     
 -0.27699999999999997          0.0000000000000000     
 -0.27399999999999997          0.0000000000000000     
 -0.27099999999999996          0.0000000000000000     
 -0.26799999999999996          0.0000000000000000     
 -0.26499999999999996          0.0000000000000000     
 -0.26199999999999996          0.0000000000000000     
 -0.25899999999999995          0.0000000000000000     
 -0.25599999999999995          0.0000000000000000     
 -0.25300000000000000          0.0000000000000000     
 -0.24999999999999997          0.0000000000000000     
 -0.24699999999999997          0.0000000000000000     
 -0.24399999999999997          0.0000000000000000     
 -0.24099999999999996          0.0000000000000000     
 -0.23799999999999996          0.0000000000000000     
 -0.23499999999999996          0.0000000000000000     
 -0.23199999999999996          0.0000000000000000     
 -0.22899999999999995          0.0000000000000000     
 -0.22599999999999995          0.0000000000000000     
 -0.22299999999999998          0.0000000000000000     
 -0.21999999999999997          0.0000000000000000     
 -0.21699999999999997          0.0000000000000000     
 -0.21399999999999997          0.0000000000000000     
 -0.21099999999999997          0.0000000000000000     
 -0.20799999999999996          0.0000000000000000     
 -0.20499999999999996          0.0000000000000000     
 -0.20199999999999996          0.0000000000000000     
 -0.19899999999999995          0.0000000000000000     
 -0.19599999999999995          0.0000000000000000     
 -0.19299999999999995          0.0000000000000000     
 -0.18999999999999997          0.0000000000000000     
 -0.18699999999999997          0.0000000000000000     
 -0.18399999999999997          0.0000000000000000     
 -0.18099999999999997          0.0000000000000000     
 -0.17799999999999996          0.0000000000000000     
 -0.17499999999999996          0.0000000000000000     
 -0.17199999999999996          0.0000000000000000     
 -0.16899999999999996          0.0000000000000000     
 -0.16599999999999995          0.0000000000000000     
 -0.16299999999999995          0.0000000000000000     
 -0.15999999999999998          0.0000000000000000     
 -0.15699999999999997          0.0000000000000000     
 -0.15399999999999997          0.0000000000000000     
 -0.15099999999999997          0.0000000000000000     
 -0.14799999999999996          0.0000000000000000     
 -0.14499999999999996          0.0000000000000000     
 -0.14199999999999996          0.0000000000000000     
 -0.13899999999999996          0.0000000000000000     
 -0.13599999999999995          0.0000000000000000     
 -0.13299999999999995          0.0000000000000000     
 -0.12999999999999995          0.0000000000000000     
 -0.12699999999999995          0.0000000000000000     
 -0.12399999999999994          0.0000000000000000     
 -0.12099999999999994          0.0000000000000000     
 -0.11799999999999994          0.0000000000000000     
 -0.11499999999999994          0.0000000000000000     
 -0.11199999999999993          0.0000000000000000     
 -0.10899999999999999          0.0000000000000000     
 -0.10599999999999998          0.0000000000000000     
 -0.10299999999999998          0.0000000000000000     
  -9.9999999999999978E-002     0.0000000000000000     
  -9.6999999999999975E-002     0.0000000000000000     
  -9.3999999999999972E-002     0.0000000000000000     
  -9.0999999999999970E-002     0.0000000000000000     
  -8.7999999999999967E-002     0.0000000000000000     
  -8.4999999999999964E-002     0.0000000000000000     
  -8.1999999999999962E-002     0.0000000000000000     
  -7.8999999999999959E-002     0.0000000000000000     
  -7.5999999999999956E-002     0.0000000000000000     
  -7.2999999999999954E-002     0.0000000000000000     
  -6.9999999999999951E-002     0.0000000000000000     
  -6.6999999999999948E-002     0.0000000000000000     
  -6.3999999999999946E-002     0.0000000000000000     
  -6.0999999999999943E-002     0.0000000000000000     
  -5.7999999999999940E-002     0.0000000000000000     
  -5.4999999999999938E-002     0.0000000000000000     
  -5.1999999999999935E-002     0.0000000000000000     
  -4.8999999999999932E-002     0.0000000000000000     
  -4.5999999999999985E-002     0.0000000000000000     
  -4.2999999999999983E-002     0.0000000000000000     
  -3.9999999999999980E-002     0.0000000000000000     
  -3.6999999999999977E-002     0.0000000000000000     
  -3.3999999999999975E-002     0.0000000000000000     
  -3.0999999999999972E-002     0.0000000000000000     
  -2.7999999999999969E-002     0.0000000000000000     
  -2.4999999999999967E-002     0.0000000000000000     
  -2.1999999999999964E-002     0.0000000000000000     
  -1.8999999999999961E-002     0.0000000000000000     
  -1.5999999999999959E-002     0.0000000000000000     
  -1.2999999999999956E-002     0.0000000000000000     
  -9.9999999999999534E-003     0.0000000000000000     
  -6.9999999999999507E-003     0.0000000000000000     
  -3.9999999999999480E-003     0.0000000000000000     
  -9.9999999999994538E-004     0.0000000000000000     
   2.0000000000000573E-003     0.0000000000000000     
   5.0000000000000600E-003     0.0000000000000000     
   8.0000000000000626E-003     0.0000000000000000     
   1.1000000000000065E-002     0.0000000000000000     
   1.4000000000000068E-002     0.0000000000000000     
   1.7000000000000015E-002     0.0000000000000000     
   2.0000000000000018E-002     0.0000000000000000     
   2.3000000000000020E-002     0.0000000000000000     
   2.6000000000000023E-002     0.0000000000000000     
   2.9000000000000026E-002     0.0000000000000000     
   3.2000000000000028E-002     0.0000000000000000     
   3.5000000000000031E-002     0.0000000000000000     
   3.8000000000000034E-002     0.0000000000000000     
   4.1000000000000036E-002     0.0000000000000000     
   4.4000000000000039E-002     0.0000000000000000     
   4.7000000000000042E-002     0.0000000000000000     
   5.0000000000000044E-002     0.0000000000000000     
   5.3000000000000047E-002     0.0000000000000000     
   5.6000000000000050E-002     0.0000000000000000     
   5.9000000000000052E-002     0.0000000000000000     
   6.2000000000000055E-002     0.0000000000000000     
   6.5000000000000058E-002     0.0000000000000000     
   6.8000000000000060E-002     0.0000000000000000     
   7.1000000000000063E-002     0.0000000000000000     
   7.4000000000000066E-002     0.0000000000000000     
   7.7000000000000068E-002     0.0000000000000000     
   8.0000000000000016E-002     0.0000000000000000     
   8.3000000000000018E-002     0.0000000000000000     
   8.6000000000000021E-002     0.0000000000000000     
   8.9000000000000024E-002     0.0000000000000000     
   9.2000000000000026E-002     0.0000000000000000     
   9.5000000000000029E-002     0.0000000000000000     
   9.8000000000000032E-002     0.0000000000000000     
  0.10100000000000003          0.0000000000000000     
  0.10400000000000004          0.0000000000000000     
  0.10700000000000004          0.0000000000000000     
  0.11000000000000004          0.0000000000000000     
  0.11300000000000004          0.0000000000000000     
  0.11600000000000005          0.0000000000000000     
  0.11900000000000005          0.0000000000000000     
  0.12200000000000005          0.0000000000000000     
  0.12500000000000006          0.0000000000000000     
  0.12800000000000006          0.0000000000000000     
  0.13100000000000006          0.0000000000000000     
  0.13400000000000006          0.0000000000000000     
  0.13700000000000007          0.0000000000000000     
  0.14000000000000007          0.0000000000000000     
  0.14300000000000007          0.0000000000000000     
  0.14600000000000007          0.0000000000000000     
  0.14900000000000008          0.0000000000000000     
  0.15200000000000008          0.0000000000000000     
  0.15500000000000008          0.0000000000000000     
  0.15800000000000008          0.0000000000000000     
  0.16100000000000009          0.0000000000000000     
  0.16400000000000009          0.0000000000000000     
  0.16700000000000009          0.0000000000000000     
  0.17000000000000010          0.0000000000000000     
  0.17300000000000010          0.0000000000000000     
  0.17600000000000010          0.0000000000000000     
  0.17899999999999999          0.0000000000000000     
  0.18200000000000000          0.0000000000000000     
  0.18500000000000000          0.0000000000000000     
  0.18800000000000000          0.0000000000000000     
  0.19100000000000000          0.0000000000000000     
  0.19400000000000001          0.0000000000000000     
  0.19700000000000001          0.0000000000000000     
  0.20000000000000001          0.0000000000000000     
  0.20300000000000001          0.0000000000000000     
  0.20600000000000002          0.0000000000000000     
  0.20900000000000002          0.0000000000000000     
  0.21200000000000002          0.0000000000000000     
  0.21500000000000002          0.0000000000000000     
  0.21800000000000003          0.0000000000000000     
  0.22100000000000003          0.0000000000000000     
  0.22400000000000003          0.0000000000000000     
  0.22700000000000004          0.0000000000000000     
  0.23000000000000004          0.0000000000000000     
  0.23300000000000004          0.0000000000000000     
  0.23600000000000004          0.0000000000000000     
  0.23900000000000005          0.0000000000000000     
  0.24200000000000005          0.0000000000000000     
  0.24500000000000005          0.0000000000000000     
  0.24800000000000005          0.0000000000000000     
  0.25100000000000006          0.0000000000000000     
  0.25400000000000006          0.0000000000000000     
  0.25700000000000006          0.0000000000000000     
  0.26000000000000006          0.0000000000000000     
  0.26300000000000007          0.0000000000000000     
  0.26600000000000007          0.0000000000000000     
  0.26900000000000007          0.0000000000000000     
  0.27200000000000008          0.0000000000000000     
  0.27500000000000008          0.0000000000000000     
  0.27800000000000008          0.0000000000000000     
  0.28100000000000008          0.0000000000000000     
  0.28400000000000009          0.0000000000000000     
  0.28700000000000009          0.0000000000000000     
  0.29000000000000009          0.0000000000000000     
  0.29300000000000009          0.0000000000000000     
  0.29600000000000010          0.0000000000000000     
  0.29900000000000010          0.0000000000000000     
  0.30200000000000010          0.0000000000000000     
  0.30499999999999999          0.0000000000000000     
  0.30800000000000000          0.0000000000000000     
  0.31100000000000000          0.0000000000000000     
  0.31400000000000000          0.0000000000000000     
  0.31700000000000000          0.0000000000000000     
  0.32000000000000001          0.0000000000000000     
  0.32300000000000001          0.0000000000000000     
  0.32600000000000001          0.0000000000000000     
  0.32900000000000001          0.0000000000000000     
  0.33200000000000002          0.0000000000000000     
  0.33500000000000002          0.0000000000000000     
  0.33800000000000002          0.0000000000000000     
  0.34100000000000003          0.0000000000000000     
  0.34400000000000003          0.0000000000000000     
  0.34700000000000003          0.0000000000000000     
  0.35000000000000003          0.0000000000000000     
  0.35300000000000004          0.0000000000000000     
  0.35600000000000004          0.0000000000000000     
  0.35900000000000004          0.0000000000000000     
  0.36200000000000004          0.0000000000000000     
  0.36500000000000005          0.0000000000000000     
  0.36800000000000005          0.0000000000000000     
  0.37100000000000005          0.0000000000000000     
  0.37400000000000005          0.0000000000000000     
  0.37700000000000006          0.0000000000000000     
  0.38000000000000006          0.0000000000000000     
  0.38300000000000006          0.0000000000000000     
  0.38600000000000007          0.0000000000000000     
  0.38900000000000007          0.0000000000000000     
  0.39200000000000007          0.0000000000000000     
  0.39500000000000007          0.0000000000000000     
  0.39800000000000008          0.0000000000000000     
  0.40100000000000008          0.0000000000000000     
  0.40400000000000008          0.0000000000000000     
  0.40700000000000008          0.0000000000000000     
  0.41000000000000009          0.0000000000000000     
  0.41300000000000009          0.0000000000000000     
  0.41600000000000009          0.0000000000000000     
  0.41900000000000009          0.0000000000000000     
  0.42200000000000010          0.0000000000000000     
  0.42500000000000010          0.0000000000000000     
  0.42800000000000010          0.0000000000000000     
  0.43100000000000011          0.0000000000000000     
  0.43400000000000000          0.0000000000000000     
  0.43700000000000000          0.0000000000000000     
  0.44000000000000000          0.0000000000000000     
  0.44300000000000000          0.0000000000000000     
  0.44600000000000001          0.0000000000000000     
  0.44900000000000001          0.0000000000000000     
  0.45200000000000001          0.0000000000000000     
  0.45500000000000002          0.0000000000000000     
  0.45800000000000002          0.0000000000000000     
  0.46100000000000002          0.0000000000000000     
  0.46400000000000002          0.0000000000000000     
  0.46700000000000003          0.0000000000000000     
  0.47000000000000003          0.0000000000000000     
  0.47300000000000003          0.0000000000000000     
  0.47600000000000003          0.0000000000000000     
  0.47900000000000004          0.0000000000000000     
  0.48200000000000004          0.0000000000000000     
  0.48500000000000004          0.0000000000000000     
  0.48800000000000004          0.0000000000000000     
  0.49100000000000005          0.0000000000000000     
  0.49400000000000005          0.0000000000000000     
  0.49700000000000005          0.0000000000000000     
  0.50000000000000000          0.0000000000000000     
  0.50300000000000011          0.0000000000000000     
  0.50600000000000001          0.0000000000000000     
  0.50900000000000012          0.0000000000000000     
  0.51200000000000001          0.0000000000000000     
  0.51500000000000012          0.0000000000000000     
  0.51800000000000002          0.0000000000000000     
  0.52100000000000013          0.0000000000000000     
  0.52400000000000002          0.0000000000000000     
  0.52700000000000014          0.0000000000000000     
  0.53000000000000003          0.0000000000000000     
  0.53300000000000014          0.0000000000000000     
  0.53600000000000003          0.0000000000000000     
  0.53900000000000015          0.0000000000000000     
  0.54200000000000004          0.0000000000000000     
  0.54500000000000015          0.0000000000000000     
  0.54800000000000004          0.0000000000000000     
  0.55100000000000016          0.0000000000000000     
  0.55400000000000005          0.0000000000000000     
  0.55700000000000016          0.0000000000000000     
  0.56000000000000005          0.0000000000000000     
  0.56299999999999994          0.0000000000000000     
  0.56600000000000006          0.0000000000000000     
  0.56899999999999995          0.0000000000000000     
  0.57200000000000006          0.0000000000000000     
  0.57499999999999996          0.0000000000000000     
  0.57800000000000007          0.0000000000000000     
  0.58099999999999996          0.0000000000000000     
  0.58400000000000007          0.0000000000000000     
  0.58699999999999997          0.0000000000000000     
  0.59000000000000008          0.0000000000000000     
  0.59299999999999997          0.0000000000000000     
  0.59600000000000009          0.0000000000000000     
  0.59899999999999998          0.0000000000000000     
  0.60200000000000009          0.0000000000000000     
  0.60500000000000020          0.0000000000000000     
  0.60800000000000010          0.0000000000000000     
  0.61100000000000021          0.0000000000000000     
  0.61400000000000010          0.0000000000000000     
  0.61700000000000021          0.0000000000000000     
  0.62000000000000011          0.0000000000000000     
  0.62300000000000022          0.0000000000000000     
  0.62600000000000011          0.0000000000000000     
  0.62900000000000000          0.0000000000000000     
  0.63200000000000012          0.0000000000000000     
  0.63500000000000001          0.0000000000000000     
  0.63800000000000012          0.0000000000000000     
  0.64100000000000001         -1.3197255019678650E-042
  0.64400000000000013          3.6965566313895310E-042
  0.64700000000000002         -7.6241939673493571E-042
  0.65000000000000013          1.7238168837519186E-040
  0.65300000000000002          2.1784355624890347E-040
  0.65600000000000014          2.2854966320968854E-040
  0.65900000000000003          1.5504081308711391E-040
  0.66200000000000014          5.3923701798772816E-042
  0.66500000000000004         -1.6174378206151695E-040
  0.66800000000000015         -4.2024198022953914E-040
  0.67100000000000004         -5.4782351504202524E-040
  0.67400000000000015         -1.1328700122551247E-039
  0.67700000000000005         -6.3275352300351354E-040
  0.68000000000000016         -2.0221100940005799E-039
  0.68300000000000005         -2.1704371177438451E-038
  0.68600000000000017         -3.1285164200051493E-038
  0.68900000000000006         -3.7074090355783184E-038
  0.69200000000000017         -3.6088325673598409E-038
  0.69500000000000006         -2.4392900456988227E-038
  0.69800000000000018          3.2036163572641584E-039
  0.70100000000000007          3.3867817521383608E-038
  0.70400000000000018          7.7143732573194880E-038
  0.70700000000000007          1.2081885820149370E-037
  0.71000000000000019          1.5448327312551918E-037
  0.71300000000000008          1.6506777661535637E-037
  0.71600000000000019          1.3910324958679400E-037
  0.71900000000000008          6.5391777224764416E-038
  0.72200000000000020         -5.9053799640429584E-038
  0.72500000000000009         -2.2659713675761516E-037
  0.72800000000000020         -4.1633070087081850E-037
  0.73100000000000009         -5.9171979266817832E-037
  0.73400000000000021         -7.0318763754428182E-037
  0.73700000000000010         -6.9527829850149125E-037
  0.74000000000000021         -5.1611874284339803E-037
  0.74300000000000010         -1.3201362200841253E-037
  0.74600000000000022          4.5704051267159161E-037
  0.74900000000000011          1.2016912603057982E-036
  0.75200000000000022          1.9950032266574552E-036
  0.75500000000000012          2.6723801107488617E-036
  0.75800000000000001          3.0249055913266070E-036
  0.76100000000000012          2.8294535045680251E-036
  0.76400000000000001          1.8944522384830511E-036
  0.76700000000000013          1.1643246057081761E-037
  0.77000000000000002         -2.4596605641264714E-036
  0.77300000000000013         -5.5883614397736138E-036
  0.77600000000000002         -8.7961223304917641E-036
  0.77900000000000014         -1.1394406181397568E-035
  0.78200000000000003         -1.2545333001047581E-035
  0.78500000000000014         -1.1386901916272701E-035
  0.78800000000000003         -7.2143354251543231E-036
  0.79100000000000015          3.0111230530588945E-037
  0.79400000000000004          1.0889216411330786E-035
  0.79700000000000015          2.3500554249736817E-035
  0.80000000000000004          3.6223472449217109E-035
  0.80300000000000016          4.6354780957241025E-035
  0.80600000000000005          5.0668245349190418E-035
  0.80900000000000016          4.5898442481645411E-035
  0.81200000000000006          2.9419216304345988E-035
  0.81500000000000017          4.7211794880449320E-038
  0.81800000000000006         -4.1150988105091947E-035
  0.82100000000000017         -9.0215820014311370E-035
  0.82400000000000007         -1.4001176718514611E-034
  0.82700000000000018         -1.8049553326081993E-034
  0.83000000000000007         -1.9968223376089952E-034
  0.83300000000000018         -1.8537002851794724E-034
  0.83600000000000008         -1.2755059313414163E-034
  0.83900000000000019         -2.1260009727502244E-035
  0.84200000000000008          1.3054043981318799E-034
  0.84500000000000020          3.1462346876366644E-034
  0.84800000000000009          5.0635642472100789E-034
  0.85100000000000020          6.7041590667707728E-034
  0.85400000000000009          7.6388251371785680E-034
  0.85700000000000021          7.4193002060971653E-034
  0.86000000000000010          5.6592640924712033E-034
  0.86300000000000021          2.1319592568836794E-034
  0.86600000000000010         -3.1285777011943099E-034
  0.86900000000000022         -9.7411322565213322E-034
  0.87200000000000011         -1.6927236057524014E-033
  0.87500000000000022         -2.3519546714597705E-033
  0.87800000000000011         -2.8047248231023961E-033
  0.88100000000000001         -2.8908001118445865E-033
  0.88400000000000012         -2.4623997068815355E-033
  0.88700000000000001         -1.4161684342663179E-033
  0.89000000000000012          2.7217778601338175E-034
  0.89300000000000002          2.5162136247287799E-033
  0.89600000000000013          5.0968563678048219E-033
  0.89900000000000002          7.6574339518074264E-033
  0.90200000000000014          9.7222369586626083E-033
  0.90500000000000003          1.0742742454733718E-032
  0.90800000000000014          1.0172437645658120E-032
  0.91100000000000003          7.5658164641150363E-033
  0.91400000000000015          2.6916672884955359E-033
  0.91700000000000004         -4.3546340658236463E-033
  0.92000000000000015         -1.3060345035770002E-032
  0.92300000000000004         -2.2448746988453173E-032
  0.92600000000000016         -3.1098809226599221E-032
  0.92900000000000005         -3.7248584083476367E-032
  0.93200000000000016         -3.8990630618279223E-032
  0.93500000000000005         -3.4554781504350905E-032
  0.93800000000000017         -2.2656400156195073E-032
  0.94100000000000006         -2.8716340906339607E-033
  0.94400000000000017          2.4016713221314023E-032
  0.94700000000000006          5.5768877709382931E-032
  0.95000000000000018          8.8605294302996573E-032
  0.95300000000000007          1.1735577867420180E-031
  0.95600000000000018          1.3588607406171731E-031
  0.95900000000000007          1.3781513033906266E-031
  0.96200000000000019          1.1749084562122839E-031
  0.96500000000000008          7.1144484278973366E-032
  0.96800000000000019         -1.9139258195392660E-033
  0.97100000000000009         -9.8238716906373092E-032
  0.97400000000000020         -2.0954151033566348E-031
  0.97700000000000009         -3.2255036672234715E-031
  0.98000000000000020         -4.1962299166690087E-031
  0.98300000000000010         -4.8023522988849783E-031
  0.98600000000000021         -4.8336999765744265E-031
  0.98900000000000010         -4.1067515834722353E-031
  0.99200000000000021         -2.5014857295062985E-031
  0.99500000000000011          1.0596650349809726E-034
  0.99800000000000022          3.2857868300529423E-031
   1.0010000000000001          7.0817406641740073E-031
   1.0040000000000002          1.0957796321836175E-030
   1.0070000000000001          1.4341628574955041E-030
   1.0100000000000000          1.6565425372357676E-030
   1.0130000000000001          1.6939285592405105E-030
   1.0160000000000000          1.4848797372802136E-030
   1.0190000000000001          9.8688909288818394E-031
   1.0220000000000000          1.8823631113108867E-031
   1.0250000000000001         -8.8142200506478971E-031
   1.0280000000000000         -2.1435369584828899E-030
   1.0310000000000001         -3.4682114736104971E-030
   1.0340000000000000         -4.6785361834727599E-030
   1.0370000000000001         -5.5629725101607672E-030
   1.0400000000000000         -5.8961948310791411E-030
   1.0430000000000001         -5.4676855373086330E-030
   1.0460000000000000         -4.1162040410885661E-030
   1.0490000000000002         -1.7667380760103638E-030
   1.0520000000000000          1.5345482452344754E-030
   1.0550000000000002          5.5927947880232111E-030
   1.0580000000000001          1.0050280456969064E-029
   1.0610000000000002          1.4391110575382534E-029
   1.0640000000000001          1.7969187355203726E-029
   1.0670000000000002          2.0061936880661806E-029
   1.0700000000000001          1.9949069627262140E-029
   1.0730000000000002          1.7012772228141108E-029
   1.0760000000000001          1.0850955811510325E-029
   1.0790000000000002          1.3918279162059031E-030
   1.0820000000000001         -1.1005051331587846E-029
   1.0850000000000002         -2.5478848554077204E-029
   1.0880000000000001         -4.0645828207690243E-029
   1.0910000000000002         -5.4641969639722259E-029
   1.0940000000000001         -6.5241342763134116E-029
   1.0970000000000002         -7.0053907435380874E-029
