 -0.39999999999999997          0.0000000000000000     
 -0.39699999999999996          0.0000000000000000     
 -0.39399999999999996          0.0000000000000000     
 -0.39099999999999996          0.0000000000000000     
 -0.38799999999999996          0.0000000000000000     
 -0.38499999999999995          0.0000000000000000     
 -0.38199999999999995          0.0000000000000000     
 -0.37899999999999995          0.0000000000000000     
 -0.37599999999999995          0.0000000000000000     
 -0.37299999999999994          0.0000000000000000     
 -0.37000000000000000          0.0000000000000000     
 -0.36699999999999999          0.0000000000000000     
 -0.36399999999999999          0.0000000000000000     
 -0.36099999999999999          0.0000000000000000     
 -0.35799999999999998          0.0000000000000000     
 -0.35499999999999998          0.0000000000000000     
 -0.35199999999999998          0.0000000000000000     
 -0.34899999999999998          0.0000000000000000     
 -0.34599999999999997          0.0000000000000000     
 -0.34299999999999997          0.0000000000000000     
 -0.33999999999999997          0.0000000000000000     
 -0.33699999999999997          0.0000000000000000     
 -0.33399999999999996          0.0000000000000000     
 -0.33099999999999996          0.0000000000000000     
 -0.32799999999999996          0.0000000000000000     
 -0.32499999999999996          0.0000000000000000     
 -0.32199999999999995          0.0000000000000000     
 -0.31899999999999995          0.0000000000000000     
 -0.31599999999999995          0.0000000000000000     
 -0.31299999999999994          0.0000000000000000     
 -0.30999999999999994          0.0000000000000000     
 -0.30699999999999994          0.0000000000000000     
 -0.30399999999999994          0.0000000000000000     
 -0.30099999999999993          0.0000000000000000     
 -0.29799999999999993          0.0000000000000000     
 -0.29499999999999998          0.0000000000000000     
 -0.29199999999999998          0.0000000000000000     
 -0.28899999999999998          0.0000000000000000     
 -0.28599999999999998          0.0000000000000000     
 -0.28299999999999997          0.0000000000000000     
 -0.27999999999999997          0.0000000000000000     
 -0.27699999999999997          0.0000000000000000     
 -0.27399999999999997          0.0000000000000000     
 -0.27099999999999996          0.0000000000000000     
 -0.26799999999999996          0.0000000000000000     
 -0.26499999999999996          0.0000000000000000     
 -0.26199999999999996          0.0000000000000000     
 -0.25899999999999995          0.0000000000000000     
 -0.25599999999999995          0.0000000000000000     
 -0.25300000000000000          0.0000000000000000     
 -0.24999999999999997          9.0191043211305744E-042
 -0.24699999999999997         -1.6596133089042036E-041
 -0.24399999999999997          7.0413385715804487E-041
 -0.24099999999999996         -1.0457914111045396E-040
 -0.23799999999999996         -2.8626919238904584E-040
 -0.23499999999999996          1.3331070476882255E-039
 -0.23199999999999996         -1.2092966840304225E-039
 -0.22899999999999995         -3.3758484538137452E-039
 -0.22599999999999995         -4.5273739331635258E-039
 -0.22299999999999998          4.8724122247650943E-038
 -0.21999999999999997         -1.6763905791889535E-039
 -0.21699999999999997         -2.0037765154867731E-037
 -0.21399999999999997          6.3211777849867477E-038
 -0.21099999999999997          7.6557161983929598E-037
 -0.20799999999999996         -3.7186769835327277E-037
 -0.20499999999999996         -2.7294125324458294E-036
 -0.20199999999999996          1.5195674642889698E-036
 -0.19899999999999995          9.1544586976107327E-036
 -0.19599999999999995         -4.8799667344509048E-036
 -0.19299999999999995         -2.8898878923232239E-035
 -0.18999999999999997          1.1952784939560366E-035
 -0.18699999999999997          8.5111515019395483E-035
 -0.18399999999999997         -1.7184439129113496E-035
 -0.18099999999999997         -2.2895306379315144E-034
 -0.17799999999999996         -2.3529599823732502E-035
 -0.17499999999999996          5.3910564355050197E-034
 -0.17199999999999996          2.8502258712397563E-034
 -0.16899999999999996         -1.0065072050603294E-033
 -0.16599999999999995         -1.2347060085516180E-033
 -0.16299999999999995          9.9228028661848896E-034
 -0.15999999999999998          3.5608590788774528E-033
 -0.15699999999999997          2.3103689492860973E-033
 -0.15399999999999997         -6.3536495525706365E-033
 -0.15099999999999997         -1.6253086823713853E-032
 -0.14799999999999996         -6.1064561646086927E-034
 -0.14499999999999996          5.0327180458667026E-032
 -0.14199999999999996          5.5362993168003202E-032
 -0.13899999999999996         -8.6477113766839922E-032
 -0.13599999999999995         -2.3802322364248849E-031
 -0.13299999999999995         -2.2825979750785957E-032
 -0.12999999999999995          5.7905699189814945E-031
 -0.12699999999999995          7.2048241494354231E-031
 -0.12399999999999994         -5.8626636424724060E-031
 -0.12099999999999994         -2.5760423124752171E-030
 -0.11799999999999994         -1.8266590290599566E-030
 -0.11499999999999994          4.3713288939771648E-030
 -0.11199999999999993          1.0619983132145871E-029
 -0.10899999999999999          2.4718251869106397E-030
 -0.10599999999999998         -2.4548313169137022E-029
 -0.10299999999999998         -3.8830150327145923E-029
  -9.9999999999999978E-002     1.1112456711203680E-029
  -9.6999999999999975E-002     1.1344126803059635E-028
  -9.3999999999999972E-002     1.2707238422634950E-028
  -9.0999999999999970E-002    -1.0892823183771285E-028
  -8.7999999999999967E-002    -4.7225244548573699E-028
  -8.4999999999999964E-002    -3.9762983784870167E-028
  -8.1999999999999962E-002     6.1322846665689179E-028
  -7.8999999999999959E-002     1.8772798497364165E-027
  -7.5999999999999956E-002     1.2000601293905651E-027
  -7.2999999999999954E-002    -2.8890636643642034E-027
  -6.9999999999999951E-002    -7.1989343158314302E-027
  -6.6999999999999948E-002    -3.5940415195036410E-027
  -6.3999999999999946E-002     1.2171425740143478E-026
  -6.0999999999999943E-002     2.7024022575547927E-026
  -5.7999999999999940E-002     1.1512069112542805E-026
  -5.4999999999999938E-002    -4.7521412543012870E-026
  -5.1999999999999935E-002    -1.0051019629595987E-025
  -4.8999999999999932E-002    -4.1589376664723531E-026
  -4.5999999999999985E-002     1.7443875542000443E-025
  -4.2999999999999983E-002     3.7059793705049907E-025
  -3.9999999999999980E-002     1.7043796040787703E-025
  -3.6999999999999977E-002    -6.0041040568845568E-025
  -3.3999999999999975E-002    -1.3503044158452887E-024
  -3.0999999999999972E-002    -7.5667415091794718E-025
  -2.7999999999999969E-002     1.9137781370337983E-024
  -2.4999999999999967E-002     4.8255754467179133E-024
  -2.1999999999999964E-002     3.4147123616878513E-024
  -1.8999999999999961E-002    -5.4740162330034255E-024
  -1.5999999999999959E-002    -1.6700765342356706E-023
  -1.2999999999999956E-002    -1.4991854544924904E-023
  -9.9999999999999534E-003     1.2943886795703101E-023
  -6.9999999999999507E-003     5.5030103185653850E-023
  -3.9999999999999480E-003     6.2474845217360385E-023
  -9.9999999999994538E-004    -1.8142694481123417E-023
   2.0000000000000573E-003    -1.6855367478977834E-022
   5.0000000000000600E-003    -2.4322341741613688E-022
   8.0000000000000626E-003    -4.0811552433991362E-023
   1.1000000000000065E-002     4.6132108745814437E-022
   1.4000000000000068E-002     8.7209597446385488E-022
   1.7000000000000015E-002     4.9004871156927446E-022
   2.0000000000000018E-002    -1.0362627978856256E-021
   2.3000000000000020E-002    -2.8262313645138490E-021
   2.6000000000000023E-002    -2.6601552559206225E-021
   2.9000000000000026E-002     1.3904441242468004E-021
   3.2000000000000028E-002     8.0135896901577748E-021
   3.5000000000000031E-002     1.1011272921913517E-020
   3.8000000000000034E-002     2.4806340364386818E-021
   4.1000000000000036E-002    -1.8508643763817571E-020
   4.4000000000000039E-002    -3.7569120782631119E-020
   4.7000000000000042E-002    -2.8054303712395678E-020
   5.0000000000000044E-002     2.7257574324855505E-020
   5.3000000000000047E-002     1.0516582498007560E-019
   5.6000000000000050E-002     1.3134923703016595E-019
   5.9000000000000052E-002     2.2167546671410312E-020
   6.2000000000000055E-002    -2.2288658837863549E-019
   6.5000000000000058E-002    -4.4214156374151816E-019
   6.8000000000000060E-002    -3.5149830023999092E-019
   7.1000000000000063E-002     2.3721392400332033E-019
   7.4000000000000066E-002     1.1128397620803126E-018
   7.7000000000000068E-002     1.5465361103259913E-018
   8.0000000000000016E-002     6.4923690107747816E-019
   8.3000000000000018E-002    -1.7878182752878082E-018
   8.6000000000000021E-002    -4.4820098505765506E-018
   8.9000000000000024E-002    -4.7710655933868414E-018
   9.2000000000000026E-002    -2.7222284246551870E-019
   9.5000000000000029E-002     8.4128462770566130E-018
   9.8000000000000032E-002     1.5905797731780151E-017
  0.10100000000000003          1.3677605308153115E-017
  0.10400000000000004         -3.9585810556223990E-018
  0.10700000000000004         -3.2131217114365316E-017
  0.11000000000000004         -5.2143586825692794E-017
  0.11300000000000004         -3.8884138776660439E-017
  0.11600000000000005          2.0592121504413465E-017
  0.11900000000000005          1.0671566680388831E-016
  0.12200000000000005          1.6234429088891535E-016
  0.12500000000000006          1.1726525721466171E-016
  0.12800000000000006         -6.0353081720867990E-017
  0.13100000000000006         -3.1261387006521844E-016
  0.13400000000000006         -4.8318763368834746E-016
  0.13700000000000007         -3.8272087498586477E-016
  0.14000000000000007          8.2392295564895824E-017
  0.14300000000000007          7.8366939603080009E-016
  0.14600000000000007          1.3433446517542344E-015
  0.14900000000000008          1.2753171375400431E-015
  0.15200000000000008          2.7245710621271668E-016
  0.15500000000000008         -1.4945886569667797E-015
  0.15800000000000008         -3.2650604487259342E-015
  0.16100000000000009         -3.9114085938119428E-015
  0.16400000000000009         -2.4827777801400028E-015
  0.16700000000000009          1.1536685850624359E-015
  0.17000000000000010          5.9230906062723045E-015
  0.17300000000000010          9.7026871931804501E-015
  0.17600000000000010          1.0090722955780598E-014
  0.17899999999999999          5.5277743021345932E-015
  0.18200000000000000         -3.7136825877490867E-015
  0.18500000000000000         -1.5158084335022382E-014
  0.18800000000000000         -2.4625195590306832E-014
  0.19100000000000000         -2.7492907779274508E-014
  0.19400000000000001         -2.0319464999686908E-014
  0.19700000000000001         -2.3052289213693513E-015
  0.20000000000000001          2.3846652559155001E-014
  0.20300000000000001          5.1930661201226357E-014
  0.20600000000000002          7.3184537978133609E-014
  0.20900000000000002          7.8127783482133893E-014
  0.21200000000000002          5.9093240854076681E-014
  0.21500000000000002          1.3032496956533733E-014
  0.21800000000000003         -5.6088676171551299E-014
  0.22100000000000003         -1.3615843304895173E-013
  0.22400000000000003         -2.0780022682624595E-013
  0.22700000000000004         -2.4756972694971485E-013
  0.23000000000000004         -2.3309452296548128E-013
  0.23300000000000004         -1.4915115693678062E-013
  0.23600000000000004          6.6689807984423393E-015
  0.23900000000000005          2.2002144319553133E-013
  0.24200000000000005          4.5862663158724867E-013
  0.24500000000000005          6.7451347747712796E-013
  0.24800000000000005          8.1000165356294783E-013
  0.25100000000000006          8.0727693090397457E-013
  0.25400000000000006          6.2069571977280592E-013
  0.25700000000000006          2.2998299268361617E-013
  0.26000000000000006         -3.4842712464160503E-013
  0.26300000000000007         -1.0550059742365917E-012
  0.26600000000000007         -1.7881987756183576E-012
  0.26900000000000007         -2.4139627167751868E-012
  0.27200000000000008         -2.7829184686817816E-012
  0.27500000000000008         -2.7527412756516432E-012
  0.27800000000000008         -2.2126824095197030E-012
  0.28100000000000008         -1.1070969691473349E-012
  0.28400000000000009          5.4485829919204184E-013
  0.28700000000000009          2.6361102917754162E-012
  0.29000000000000009          4.9679898373203936E-012
  0.29300000000000009          7.2587097541095845E-012
  0.29600000000000010          9.1658487564240901E-012
  0.29900000000000010          1.0322782465472376E-011
  0.30200000000000010          1.0386501502825803E-011
  0.30499999999999999          9.0918751316921305E-012
  0.30800000000000000          6.3058549931712552E-012
  0.31100000000000000          2.0745473979062883E-012
  0.31400000000000000         -3.3436060820930341E-012
  0.31700000000000000         -9.4645993920065575E-012
  0.32000000000000001         -1.5590523735775778E-011
  0.32300000000000001         -2.0849345748048503E-011
  0.32600000000000001         -2.4263413039879933E-011
  0.32900000000000001         -2.4843913379239594E-011
  0.33200000000000002         -2.1704961295242614E-011
  0.33500000000000002         -1.4188037527842728E-011
  0.33800000000000002         -1.9860779486524876E-012
  0.34100000000000003          1.4743691190899576E-011
  0.34400000000000003          3.5288045481461598E-011
  0.34700000000000003          5.8315583510098297E-011
  0.35000000000000003          8.1850117200069790E-011
  0.35300000000000004          1.0328352602947538E-010
  0.35600000000000004          1.1942786814746808E-010
  0.35900000000000004          1.2660338740857147E-010
  0.36200000000000004          1.2075407636344049E-010
  0.36500000000000005          9.7579245301506245E-011
  0.36800000000000005          5.2667185277078636E-011
  0.37100000000000005         -1.8385174593058146E-011
  0.37400000000000005         -1.1988273548163719E-010
  0.37700000000000006         -2.5598925851921634E-010
  0.38000000000000006         -4.3074518621626589E-010
  0.38300000000000006         -6.4815794671654247E-010
  0.38600000000000007         -9.1237304159657606E-010
  0.38900000000000007         -1.2279266761647965E-009
  0.39200000000000007         -1.6000793911766021E-009
  0.39500000000000007         -2.0352211067743187E-009
  0.39800000000000008         -2.5413400850581674E-009
  0.40100000000000008         -3.1285424732331749E-009
  0.40400000000000008         -3.8096075667654725E-009
  0.40700000000000008         -4.6005701165657877E-009
  0.41000000000000009         -5.5213102560596430E-009
  0.41300000000000009         -6.5961458376661342E-009
  0.41600000000000009         -7.8544227331764867E-009
  0.41900000000000009         -9.3311043824885479E-009
  0.42200000000000010         -1.1067353432518451E-008
  0.42500000000000010         -1.3111140611387148E-008
  0.42800000000000010         -1.5517881141118791E-008
  0.43100000000000011         -1.8351099047009976E-008
  0.43400000000000000         -2.1683164978576574E-008
  0.43700000000000000         -2.5596126683260692E-008
  0.44000000000000000         -3.0182635137933564E-008
  0.44300000000000000         -3.5546997467834676E-008
  0.44600000000000001         -4.1806354106598737E-008
  0.44900000000000001         -4.9092054363565379E-008
  0.45200000000000001         -5.7551123345833487E-008
  0.45500000000000002         -6.7347940124348615E-008
  0.45800000000000002         -7.8666023465660719E-008
  0.46100000000000002         -9.1710023045826318E-008
  0.46400000000000002         -1.0670768545597881E-007
  0.46700000000000003         -1.2391214780043820E-007
  0.47000000000000003         -1.4360397823643500E-007
  0.47300000000000003         -1.6609344613364929E-007
  0.47600000000000003         -1.9172266254851770E-007
  0.47900000000000004         -2.2086778686098893E-007
  0.48200000000000004         -2.5394093147827413E-007
  0.48500000000000004         -2.9139205716512173E-007
  0.48800000000000004         -3.3371053939561001E-007
  0.49100000000000005         -3.8142671517863696E-007
  0.49400000000000005         -4.3511268410518787E-007
  0.49700000000000005         -4.9538352845995172E-007
  0.50000000000000000         -5.6289697249359740E-007
  0.50300000000000011         -6.3835387203992592E-007
  0.50600000000000001         -7.2249689025731422E-007
  0.50900000000000012         -8.1610916974896477E-007
  0.51200000000000001         -9.2001349846125457E-007
  0.51500000000000012         -1.0350674804929711E-006
  0.51800000000000002         -1.1621619725432837E-006
  0.52100000000000013         -1.3022146467043712E-006
  0.52400000000000002         -1.4561655540660793E-006
  0.52700000000000014         -1.6249696352794296E-006
  0.53000000000000003         -1.8095892845124440E-006
  0.53300000000000014         -2.0109842551768724E-006
  0.53600000000000003         -2.2301026367077213E-006
  0.53900000000000015         -2.4678657508692008E-006
  0.54200000000000004         -2.7251572978906591E-006
  0.54500000000000015         -3.0028077478217911E-006
  0.54800000000000004         -3.3015767749752548E-006
  0.55100000000000016         -3.6221351435750453E-006
  0.55400000000000005         -3.9650475363987287E-006
  0.55700000000000016         -4.3307480298052060E-006
  0.56000000000000005         -4.7195197973650543E-006
  0.56299999999999994         -5.1314764222883666E-006
  0.56600000000000006         -5.5665292658260212E-006
  0.56899999999999995         -6.0243722513171331E-006
  0.57200000000000006         -6.5044485936582864E-006
  0.57499999999999996         -7.0059346733287708E-006
  0.57800000000000007         -7.5277103021951372E-006
  0.58099999999999996         -8.0683350684247828E-006
  0.58400000000000007         -8.6260274031190349E-006
  0.58699999999999997         -9.1986540431212527E-006
  0.59000000000000008         -9.7836929530157262E-006
  0.59299999999999997         -1.0378225557206503E-005
  0.59600000000000009         -1.0978938423799071E-005
  0.59899999999999998         -1.1582082445929289E-005
  0.60200000000000009         -1.2183508072221319E-005
  0.60500000000000020         -1.2778637225058022E-005
  0.60800000000000010         -1.3362475960082218E-005
  0.61100000000000021         -1.3929630898297919E-005
  0.61400000000000010         -1.4474332361484528E-005
  0.61700000000000021         -1.4990429241578559E-005
  0.62000000000000011         -1.5471457893748917E-005
  0.62300000000000022         -1.5910650754079924E-005
  0.62600000000000011         -1.6301010795731475E-005
  0.62900000000000000         -1.6635344639534744E-005
  0.63200000000000012         -1.6906308255294510E-005
  0.63500000000000001         -1.7106522281954896E-005
  0.63800000000000012         -1.7228582120473036E-005
  0.64100000000000001         -1.7265194270493828E-005
  0.64400000000000013         -1.7209241808132122E-005
  0.64700000000000002         -1.7053851990407675E-005
  0.65000000000000013         -1.6792528515282670E-005
  0.65300000000000002         -1.6419239989718378E-005
  0.65600000000000014         -1.5928498640817206E-005
  0.65900000000000003         -1.5315487188335926E-005
  0.66200000000000014         -1.4576151167016344E-005
  0.66500000000000004         -1.3707275377532068E-005
  0.66800000000000015         -1.2706610493376302E-005
  0.67100000000000004         -1.1572951645553481E-005
  0.67400000000000015         -1.0306209985358372E-005
  0.67700000000000005         -8.9074905157956514E-006
  0.68000000000000016         -7.3791682790499320E-006
  0.68300000000000005         -5.7249268854661519E-006
  0.68600000000000017         -3.9497700192414040E-006
  0.68900000000000006         -2.0601647483468556E-006
  0.69200000000000017         -6.3857515511629582E-008
  0.69500000000000006          2.0300042734211412E-006
  0.69800000000000018          4.2108907213270643E-006
  0.70100000000000007          6.4669942282064439E-006
  0.70400000000000018          8.7852537217065201E-006
  0.70700000000000007          1.1151464074050945E-005
  0.71000000000000019          1.3550325060598449E-005
  0.71300000000000008          1.5965609316157636E-005
  0.71600000000000019          1.8380294114304187E-005
  0.71900000000000008          2.0776661539250624E-005
  0.72200000000000020          2.3136491557556391E-005
  0.72500000000000009          2.5441279251714420E-005
  0.72800000000000020          2.7672313919241230E-005
  0.73100000000000009          2.9811010561945219E-005
  0.73400000000000021          3.1838980835716008E-005
  0.73700000000000010          3.3738328786181672E-005
  0.74000000000000021          3.5491776563961576E-005
  0.74300000000000010          3.7082949106122574E-005
  0.74600000000000022          3.8496522474572977E-005
  0.74900000000000011          3.9718420861153173E-005
  0.75200000000000022          4.0735986968607213E-005
  0.75500000000000012          4.1538157117862816E-005
  0.75800000000000001          4.2115619417640693E-005
  0.76100000000000012          4.2460898516242742E-005
  0.76400000000000001          4.2568498694766265E-005
  0.76700000000000013          4.2435023495677147E-005
  0.77000000000000002          4.2059195100204972E-005
  0.77300000000000013          4.1441881161883441E-005
  0.77600000000000002          4.0586137119935985E-005
  0.77900000000000014          3.9497157402411890E-005
  0.78200000000000003          3.8182263950653368E-005
  0.78500000000000014          3.6650829998863241E-005
  0.78800000000000003          3.4914173113337574E-005
  0.79100000000000015          3.2985490081704883E-005
  0.79400000000000004          3.0879655810355809E-005
  0.79700000000000015          2.8613068644163333E-005
  0.80000000000000004          2.6203448770773861E-005
  0.80300000000000016          2.3669750746637874E-005
  0.80600000000000005          2.1031848489102389E-005
  0.80900000000000016          1.8310359964345480E-005
  0.81200000000000006          1.5526436341547136E-005
  0.81500000000000017          1.2701475833746583E-005
  0.81800000000000006          9.8569495939525955E-006
  0.82100000000000017          7.0141071110502616E-006
  0.82400000000000007          4.1938550816560090E-006
  0.82700000000000018          1.4164416211142633E-006
  0.83000000000000007         -1.2986480069029333E-006
  0.83300000000000018         -3.9329527400909988E-006
  0.83600000000000008         -6.4690770227495101E-006
  0.83900000000000019         -8.8911690794441136E-006
  0.84200000000000008         -1.1184696252151739E-005
  0.84500000000000020         -1.3336685725533792E-005
  0.84800000000000009         -1.5335898455738655E-005
  0.85100000000000020         -1.7172766301272773E-005
  0.85400000000000009         -1.8839487285763952E-005
  0.85700000000000021         -2.0330061928300999E-005
  0.86000000000000010         -2.1640321689672485E-005
  0.86300000000000021         -2.2767841824063302E-005
  0.86600000000000010         -2.3711915228623164E-005
  0.86900000000000022         -2.4473566203928711E-005
  0.87200000000000011         -2.5055305216578516E-005
  0.87500000000000022         -2.5461192344150931E-005
  0.87800000000000011         -2.5696657103637178E-005
  0.88100000000000001         -2.5768398389173834E-005
  0.88400000000000012         -2.5684240037363253E-005
  0.88700000000000001         -2.5453005253122192E-005
  0.89000000000000012         -2.5084382197584832E-005
  0.89300000000000002         -2.4588693265208016E-005
  0.89600000000000013         -2.3976857197248444E-005
  0.89900000000000002         -2.3260224206377216E-005
  0.90200000000000014         -2.2450385473515768E-005
  0.90500000000000003         -2.1559081999875631E-005
  0.90800000000000014         -2.0598057626970888E-005
  0.91100000000000003         -1.9578941602245489E-005
  0.91400000000000015         -1.8513113663217788E-005
  0.91700000000000004         -1.7411605683890480E-005
  0.92000000000000015         -1.6285052563574869E-005
  0.92300000000000004         -1.5143574494882249E-005
  0.92600000000000016         -1.3996684919191647E-005
  0.92900000000000005         -1.2853269629682324E-005
  0.93200000000000016         -1.1721534343620796E-005
  0.93500000000000005         -1.0608952388807296E-005
  0.93800000000000017         -9.5222434786377858E-006
  0.94100000000000006         -8.4673931812095231E-006
  0.94400000000000017         -7.4496258888114894E-006
  0.94700000000000006         -6.4734021205940316E-006
  0.95000000000000018         -5.5424479606611414E-006
  0.95300000000000007         -4.6597883359837614E-006
  0.95600000000000018         -3.8277496450335868E-006
  0.95900000000000007         -3.0479979105725779E-006
  0.96200000000000019         -2.3215893229856270E-006
  0.96500000000000008         -1.6490157723530300E-006
  0.96800000000000019         -1.0302331044725280E-006
  0.97100000000000009         -4.6471618982911824E-007
  0.97400000000000020          4.8460297370844594E-008
  0.97700000000000009          5.1060353643667994E-007
  0.98000000000000020          9.2335368975675062E-007
  0.98300000000000010          1.2886308515471660E-006
  0.98600000000000021          1.6085597054881578E-006
  0.98900000000000010          1.8854709130946418E-006
  0.99200000000000021          2.1218402332397996E-006
  0.99500000000000011          2.3202411680332110E-006
  0.99800000000000022          2.4833003336450303E-006
   1.0010000000000001          2.6136989018065941E-006
   1.0040000000000002          2.7140987167705556E-006
   1.0070000000000001          2.7871235449981155E-006
   1.0100000000000000          2.8353409509312059E-006
   1.0130000000000001          2.8612660189249644E-006
   1.0160000000000000          2.8673190975735851E-006
   1.0190000000000001          2.8558081005606164E-006
   1.0220000000000000          2.8289249126173391E-006
   1.0250000000000001          2.7887337455486334E-006
   1.0280000000000000          2.7371573497047822E-006
   1.0310000000000001          2.6759724989272981E-006
   1.0340000000000000          2.6068417949212203E-006
   1.0370000000000001          2.5312935415758253E-006
   1.0400000000000000          2.4507140204984574E-006
   1.0430000000000001          2.3663457916293788E-006
   1.0460000000000000          2.2793060079636794E-006
   1.0490000000000002          2.1905864732833035E-006
   1.0520000000000000          2.1010460908699841E-006
   1.0550000000000002          2.0114515946974009E-006
   1.0580000000000001          1.9224761503299760E-006
   1.0610000000000002          1.8346814249557606E-006
   1.0640000000000001          1.7485354935697821E-006
   1.0670000000000002          1.6644279021662055E-006
   1.0700000000000001          1.5826800902074865E-006
   1.0730000000000002          1.5035382838862149E-006
   1.0760000000000001          1.4271927159128661E-006
   1.0790000000000002          1.3537892446915781E-006
   1.0820000000000001          1.2834155933258364E-006
   1.0850000000000002          1.2161120241105866E-006
   1.0880000000000001          1.1518896979467138E-006
   1.0910000000000002          1.0907339151633409E-006
   1.0940000000000001          1.0326010310463633E-006
   1.0970000000000002          9.7742242656178082E-007
