 -0.39999999999999997          0.0000000000000000     
 -0.39699999999999996          0.0000000000000000     
 -0.39399999999999996          0.0000000000000000     
 -0.39099999999999996          0.0000000000000000     
 -0.38799999999999996          0.0000000000000000     
 -0.38499999999999995          0.0000000000000000     
 -0.38199999999999995          0.0000000000000000     
 -0.37899999999999995          0.0000000000000000     
 -0.37599999999999995          0.0000000000000000     
 -0.37299999999999994          0.0000000000000000     
 -0.37000000000000000          0.0000000000000000     
 -0.36699999999999999          0.0000000000000000     
 -0.36399999999999999          0.0000000000000000     
 -0.36099999999999999          0.0000000000000000     
 -0.35799999999999998          0.0000000000000000     
 -0.35499999999999998          0.0000000000000000     
 -0.35199999999999998          0.0000000000000000     
 -0.34899999999999998          0.0000000000000000     
 -0.34599999999999997          0.0000000000000000     
 -0.34299999999999997          0.0000000000000000     
 -0.33999999999999997          0.0000000000000000     
 -0.33699999999999997          0.0000000000000000     
 -0.33399999999999996          0.0000000000000000     
 -0.33099999999999996          0.0000000000000000     
 -0.32799999999999996          0.0000000000000000     
 -0.32499999999999996          0.0000000000000000     
 -0.32199999999999995          0.0000000000000000     
 -0.31899999999999995          0.0000000000000000     
 -0.31599999999999995          0.0000000000000000     
 -0.31299999999999994          0.0000000000000000     
 -0.30999999999999994          0.0000000000000000     
 -0.30699999999999994          0.0000000000000000     
 -0.30399999999999994          0.0000000000000000     
 -0.30099999999999993          0.0000000000000000     
 -0.29799999999999993          0.0000000000000000     
 -0.29499999999999998          0.0000000000000000     
 -0.29199999999999998          0.0000000000000000     
 -0.28899999999999998          0.0000000000000000     
 -0.28599999999999998          0.0000000000000000     
 -0.28299999999999997          0.0000000000000000     
 -0.27999999999999997          0.0000000000000000     
 -0.27699999999999997          0.0000000000000000     
 -0.27399999999999997          0.0000000000000000     
 -0.27099999999999996          0.0000000000000000     
 -0.26799999999999996          0.0000000000000000     
 -0.26499999999999996          0.0000000000000000     
 -0.26199999999999996          0.0000000000000000     
 -0.25899999999999995          0.0000000000000000     
 -0.25599999999999995          0.0000000000000000     
 -0.25300000000000000          0.0000000000000000     
 -0.24999999999999997          0.0000000000000000     
 -0.24699999999999997          0.0000000000000000     
 -0.24399999999999997          0.0000000000000000     
 -0.24099999999999996          0.0000000000000000     
 -0.23799999999999996          0.0000000000000000     
 -0.23499999999999996          0.0000000000000000     
 -0.23199999999999996          0.0000000000000000     
 -0.22899999999999995          0.0000000000000000     
 -0.22599999999999995          0.0000000000000000     
 -0.22299999999999998          0.0000000000000000     
 -0.21999999999999997          0.0000000000000000     
 -0.21699999999999997          0.0000000000000000     
 -0.21399999999999997          0.0000000000000000     
 -0.21099999999999997          0.0000000000000000     
 -0.20799999999999996          0.0000000000000000     
 -0.20499999999999996          0.0000000000000000     
 -0.20199999999999996          0.0000000000000000     
 -0.19899999999999995          0.0000000000000000     
 -0.19599999999999995          0.0000000000000000     
 -0.19299999999999995          0.0000000000000000     
 -0.18999999999999997          0.0000000000000000     
 -0.18699999999999997          0.0000000000000000     
 -0.18399999999999997          0.0000000000000000     
 -0.18099999999999997          0.0000000000000000     
 -0.17799999999999996          0.0000000000000000     
 -0.17499999999999996          0.0000000000000000     
 -0.17199999999999996          0.0000000000000000     
 -0.16899999999999996          0.0000000000000000     
 -0.16599999999999995          0.0000000000000000     
 -0.16299999999999995          0.0000000000000000     
 -0.15999999999999998          0.0000000000000000     
 -0.15699999999999997          0.0000000000000000     
 -0.15399999999999997          0.0000000000000000     
 -0.15099999999999997          0.0000000000000000     
 -0.14799999999999996          0.0000000000000000     
 -0.14499999999999996          0.0000000000000000     
 -0.14199999999999996          0.0000000000000000     
 -0.13899999999999996          0.0000000000000000     
 -0.13599999999999995          0.0000000000000000     
 -0.13299999999999995          0.0000000000000000     
 -0.12999999999999995          0.0000000000000000     
 -0.12699999999999995          0.0000000000000000     
 -0.12399999999999994          0.0000000000000000     
 -0.12099999999999994          0.0000000000000000     
 -0.11799999999999994          0.0000000000000000     
 -0.11499999999999994          0.0000000000000000     
 -0.11199999999999993          0.0000000000000000     
 -0.10899999999999999          0.0000000000000000     
 -0.10599999999999998          0.0000000000000000     
 -0.10299999999999998          0.0000000000000000     
  -9.9999999999999978E-002     0.0000000000000000     
  -9.6999999999999975E-002     0.0000000000000000     
  -9.3999999999999972E-002     0.0000000000000000     
  -9.0999999999999970E-002     0.0000000000000000     
  -8.7999999999999967E-002     0.0000000000000000     
  -8.4999999999999964E-002     0.0000000000000000     
  -8.1999999999999962E-002     0.0000000000000000     
  -7.8999999999999959E-002     0.0000000000000000     
  -7.5999999999999956E-002     0.0000000000000000     
  -7.2999999999999954E-002     0.0000000000000000     
  -6.9999999999999951E-002     0.0000000000000000     
  -6.6999999999999948E-002     0.0000000000000000     
  -6.3999999999999946E-002     0.0000000000000000     
  -6.0999999999999943E-002     0.0000000000000000     
  -5.7999999999999940E-002     0.0000000000000000     
  -5.4999999999999938E-002     0.0000000000000000     
  -5.1999999999999935E-002     0.0000000000000000     
  -4.8999999999999932E-002     0.0000000000000000     
  -4.5999999999999985E-002     0.0000000000000000     
  -4.2999999999999983E-002     0.0000000000000000     
  -3.9999999999999980E-002     0.0000000000000000     
  -3.6999999999999977E-002     0.0000000000000000     
  -3.3999999999999975E-002     0.0000000000000000     
  -3.0999999999999972E-002     0.0000000000000000     
  -2.7999999999999969E-002     0.0000000000000000     
  -2.4999999999999967E-002     0.0000000000000000     
  -2.1999999999999964E-002     0.0000000000000000     
  -1.8999999999999961E-002     0.0000000000000000     
  -1.5999999999999959E-002     0.0000000000000000     
  -1.2999999999999956E-002     0.0000000000000000     
  -9.9999999999999534E-003     0.0000000000000000     
  -6.9999999999999507E-003     0.0000000000000000     
  -3.9999999999999480E-003     0.0000000000000000     
  -9.9999999999994538E-004     0.0000000000000000     
   2.0000000000000573E-003     0.0000000000000000     
   5.0000000000000600E-003     0.0000000000000000     
   8.0000000000000626E-003     0.0000000000000000     
   1.1000000000000065E-002     0.0000000000000000     
   1.4000000000000068E-002     0.0000000000000000     
   1.7000000000000015E-002     0.0000000000000000     
   2.0000000000000018E-002     0.0000000000000000     
   2.3000000000000020E-002     0.0000000000000000     
   2.6000000000000023E-002     0.0000000000000000     
   2.9000000000000026E-002     0.0000000000000000     
   3.2000000000000028E-002     0.0000000000000000     
   3.5000000000000031E-002     0.0000000000000000     
   3.8000000000000034E-002     0.0000000000000000     
   4.1000000000000036E-002     0.0000000000000000     
   4.4000000000000039E-002     0.0000000000000000     
   4.7000000000000042E-002     0.0000000000000000     
   5.0000000000000044E-002     0.0000000000000000     
   5.3000000000000047E-002     0.0000000000000000     
   5.6000000000000050E-002     0.0000000000000000     
   5.9000000000000052E-002     0.0000000000000000     
   6.2000000000000055E-002     0.0000000000000000     
   6.5000000000000058E-002     0.0000000000000000     
   6.8000000000000060E-002     0.0000000000000000     
   7.1000000000000063E-002     0.0000000000000000     
   7.4000000000000066E-002     0.0000000000000000     
   7.7000000000000068E-002     0.0000000000000000     
   8.0000000000000016E-002     0.0000000000000000     
   8.3000000000000018E-002     0.0000000000000000     
   8.6000000000000021E-002     0.0000000000000000     
   8.9000000000000024E-002     0.0000000000000000     
   9.2000000000000026E-002     0.0000000000000000     
   9.5000000000000029E-002     0.0000000000000000     
   9.8000000000000032E-002     0.0000000000000000     
  0.10100000000000003          0.0000000000000000     
  0.10400000000000004          0.0000000000000000     
  0.10700000000000004          0.0000000000000000     
  0.11000000000000004          0.0000000000000000     
  0.11300000000000004          0.0000000000000000     
  0.11600000000000005          0.0000000000000000     
  0.11900000000000005          0.0000000000000000     
  0.12200000000000005          0.0000000000000000     
  0.12500000000000006          0.0000000000000000     
  0.12800000000000006          0.0000000000000000     
  0.13100000000000006          0.0000000000000000     
  0.13400000000000006          0.0000000000000000     
  0.13700000000000007          0.0000000000000000     
  0.14000000000000007          0.0000000000000000     
  0.14300000000000007          0.0000000000000000     
  0.14600000000000007          0.0000000000000000     
  0.14900000000000008          0.0000000000000000     
  0.15200000000000008          0.0000000000000000     
  0.15500000000000008          0.0000000000000000     
  0.15800000000000008          0.0000000000000000     
  0.16100000000000009          0.0000000000000000     
  0.16400000000000009          0.0000000000000000     
  0.16700000000000009          0.0000000000000000     
  0.17000000000000010          0.0000000000000000     
  0.17300000000000010          0.0000000000000000     
  0.17600000000000010          4.2266218295417292E-042
  0.17899999999999999          2.0962030841084347E-042
  0.18200000000000000         -7.4200463406530139E-042
  0.18500000000000000         -1.2886788465263151E-041
  0.18800000000000000          2.0133722166122134E-041
  0.19100000000000000          1.9192480430475956E-040
  0.19400000000000001          2.1545878053386816E-040
  0.19700000000000001         -2.2794024163859048E-040
  0.20000000000000001         -6.8260655206161895E-040
  0.20300000000000001         -4.9871739945130095E-040
  0.20600000000000002          4.6719284729659306E-040
  0.20900000000000002          1.3941572283192193E-039
  0.21200000000000002          1.0360379342604627E-039
  0.21500000000000002         -1.6044635532335793E-038
  0.21800000000000003         -1.8753160673796153E-038
  0.22100000000000003         -3.6660042346524857E-041
  0.22400000000000003          2.7002952093627400E-038
  0.22700000000000004          6.7181075682774995E-038
  0.23000000000000004          8.7211190410924259E-038
  0.23300000000000004          4.8698102891726674E-038
  0.23600000000000004         -7.2157131479949954E-038
  0.23900000000000005         -2.5118877796779226E-037
  0.24200000000000005         -3.9177017504305736E-037
  0.24500000000000005         -3.3890924693123793E-037
  0.24800000000000005          4.7905891724793931E-038
  0.25100000000000006          7.6967526146298435E-037
  0.25400000000000006          1.5631689175872209E-036
  0.25700000000000006          1.8715138963679889E-036
  0.26000000000000006          1.0110201159205775E-036
  0.26300000000000007         -1.4282381925623021E-036
  0.26600000000000007         -5.0473902581752447E-036
  0.26900000000000007         -8.2411140354254504E-036
  0.27200000000000008         -8.3243434800265752E-036
  0.27500000000000008         -2.5096986123988562E-036
  0.27800000000000008          1.0261174760259782E-035
  0.28100000000000008          2.7190722961602612E-035
  0.28400000000000009          4.0369085286738051E-035
  0.28700000000000009          3.7858031537757618E-035
  0.29000000000000009          8.1851327097338781E-036
  0.29300000000000009         -5.2021225963839076E-035
  0.29600000000000010         -1.2963431076291608E-034
  0.29900000000000010         -1.9038937952711221E-034
  0.30200000000000010         -1.8347152763946441E-034
  0.30499999999999999         -5.9229883418869057E-035
  0.30800000000000000          2.0092004324668127E-034
  0.31100000000000000          5.5084557651321559E-034
  0.31400000000000000          8.5849739648876884E-034
  0.31700000000000000          9.1734591622381300E-034
  0.32000000000000001          5.0639971901912603E-034
  0.32300000000000001         -5.0055995401860299E-034
  0.32600000000000001         -2.0011495881735843E-033
  0.32900000000000001         -3.5589805902926730E-033
  0.33200000000000002         -4.3989438558390781E-033
  0.33500000000000002         -3.5706155267358684E-033
  0.33800000000000002         -3.0654958104423122E-034
  0.34100000000000003          5.4757192353105852E-033
  0.34400000000000003          1.2679142041269135E-032
  0.34700000000000003          1.8779288033170609E-032
  0.35000000000000003          2.0091319023586459E-032
  0.35300000000000004          1.2743432133275119E-032
  0.35600000000000004         -5.6583155952942329E-033
  0.35900000000000004         -3.4006401531194781E-032
  0.36200000000000004         -6.5992924120273842E-032
  0.36500000000000005         -8.9670105694707639E-032
  0.36800000000000005         -8.9196107803604331E-032
  0.37100000000000005         -4.9287976362322562E-032
  0.37400000000000005          3.7938206693894702E-032
  0.37700000000000006          1.6522469102123410E-031
  0.38000000000000006          3.0419524920673881E-031
  0.38300000000000006          4.0455488233440588E-031
  0.38600000000000007          4.0165525005568515E-031
  0.38900000000000007          2.3402628276097483E-031
  0.39200000000000007         -1.3054983757362234E-031
  0.39500000000000007         -6.6588543478335318E-031
  0.39800000000000008         -1.2646310351248119E-030
  0.40100000000000008         -1.7338962960852021E-030
  0.40400000000000008         -1.8205387072952262E-030
  0.40700000000000008         -1.2722592698516481E-030
  0.41000000000000009          6.9249092752909217E-032
  0.41300000000000009          2.1602542138582251E-030
  0.41600000000000009          4.6629449863297645E-030
  0.41900000000000009          6.9098910825773177E-030
  0.42200000000000010          7.9655872961598826E-030
  0.42500000000000010          6.8118922385149510E-030
  0.42800000000000010          2.6549759180367937E-030
  0.43100000000000011         -4.6906439915671116E-030
  0.43400000000000000         -1.4431881943428969E-029
  0.43700000000000000         -2.4569479148597165E-029
  0.44000000000000000         -3.1954954541812032E-029
  0.44300000000000000         -3.2747519662037356E-029
  0.44600000000000001         -2.3311213736049663E-029
  0.44900000000000001         -1.4718627933139008E-030
  0.45200000000000001          3.2094987456297716E-029
  0.45500000000000002          7.2716090997280434E-029
  0.45800000000000002          1.1127273776613916E-028
  0.46100000000000002          1.3490253407573852E-028
  0.46400000000000002          1.2914852124317193E-028
  0.46700000000000003          8.1551756443066587E-029
  0.47000000000000003         -1.3743360312253878E-029
  0.47300000000000003         -1.5127808656902477E-028
  0.47600000000000003         -3.1077992854615409E-028
  0.47900000000000004         -4.5639093667962882E-028
  0.48200000000000004         -5.3999214858919584E-028
  0.48500000000000004         -5.0940151933045658E-028
  0.48800000000000004         -3.2118227403406043E-028
  0.49100000000000005          4.3570708712524180E-029
  0.49400000000000005          5.6356470284917219E-028
  0.49700000000000005          1.1660442751727119E-027
  0.50000000000000000          1.7247093451431347E-027
  0.50300000000000011          2.0710102697327631E-027
  0.50600000000000001          2.0211277447234446E-027
  0.50900000000000012          1.4177300773412522E-027
  0.51200000000000001          1.8146106154174627E-028
  0.51500000000000012         -1.6372551272462863E-027
  0.51800000000000002         -3.8191007423862777E-027
  0.52100000000000013         -5.9640361387307022E-027
  0.52400000000000002         -7.5199147918370565E-027
  0.52700000000000014         -7.8595034529937884E-027
  0.53000000000000003         -6.4049326658044871E-027
  0.53300000000000014         -2.7867788230130855E-027
  0.53600000000000003          2.9877865028135031E-027
  0.53900000000000015          1.0394473540269345E-026
  0.54200000000000004          1.8321849468097491E-026
  0.54500000000000015          2.5113012380487705E-026
  0.54800000000000004          2.8748401024400964E-026
  0.55100000000000016          2.7176828149393486E-026
  0.55400000000000005          1.8770627670407183E-026
  0.55700000000000016          2.8448178931171250E-027
  0.56000000000000005         -1.9853603320971599E-026
  0.56299999999999994         -4.6804384822866578E-026
  0.56600000000000006         -7.3644542688525100E-026
  0.56899999999999995         -9.4475241630736257E-026
  0.57200000000000006         -1.0260215007774400E-025
  0.57499999999999996         -9.1692040800542879E-026
  0.57800000000000007         -5.7235215452893097E-026
  0.58099999999999996          1.8942172649395479E-027
  0.58400000000000007          8.2072755267507198E-026
  0.58699999999999997          1.7409751444215032E-025
  0.59000000000000008          2.6322692046935501E-025
  0.59299999999999997          3.3035184397822921E-025
  0.59600000000000009          3.5440847985883106E-025
  0.59899999999999998          3.1593155583468889E-025
  0.60200000000000009          2.0139358376427197E-025
  0.60500000000000020          7.7232650819838284E-027
  0.60800000000000010         -2.5381482027210459E-025
  0.61100000000000021         -5.5530416213890063E-025
  0.61400000000000010         -8.5231497739963160E-025
  0.61700000000000021         -1.0871788911602163E-024
  0.62000000000000011         -1.1956916126226498E-024
  0.62300000000000022         -1.1169811555799885E-024
  0.62600000000000011         -8.0564524320177745E-025
  0.62900000000000000         -2.4460276089581775E-025
  0.63200000000000012          5.4343289607814924E-025
  0.63500000000000001          1.4882626539653349E-024
  0.63800000000000012          2.4706718797732318E-024
  0.64100000000000001          3.3289978522945348E-024
  0.64400000000000013          3.8748498432566668E-024
  0.64700000000000002          3.9177575138295432E-024
  0.65000000000000013          3.2969737511697912E-024
  0.65300000000000002          1.9170174462108592E-024
  0.65600000000000014         -2.1792394452276663E-025
  0.65900000000000003         -2.9766656297063749E-024
  0.66200000000000014         -6.0870281581533353E-024
  0.66500000000000004         -9.1408790875778848E-024
  0.66800000000000015         -1.1622282544590408E-023
  0.67100000000000004         -1.2960269499972588E-023
  0.67400000000000015         -1.2604230925546882E-023
  0.67700000000000005         -1.0116058637034661E-023
  0.68000000000000016         -5.2691088370005537E-024
  0.68300000000000005          1.8593158496665374E-024
  0.68600000000000017          1.0817502876625253E-023
  0.68900000000000006          2.0746987635105582E-023
  0.69200000000000017          3.0402624768122734E-023
  0.69500000000000006          3.8235221437982331E-023
  0.69800000000000018          4.2540365376033301E-023
  0.70100000000000007          4.1668348396519493E-023
  0.70400000000000018          3.4280381609938506E-023
  0.70700000000000007          1.9626045156768186E-023
  0.71000000000000019         -2.1919237376559990E-024
  0.71300000000000008         -3.0005779830291033E-023
  0.71600000000000019         -6.1466781173614965E-023
  0.71900000000000008         -9.3064627540045331E-023
  0.72200000000000020         -1.2031378532381075E-022
  0.72500000000000009         -1.3812243361646005E-022
  0.72800000000000020         -1.4133944876307945E-022
  0.73100000000000009         -1.2545000927579338E-022
  0.73400000000000021         -8.7362996902194596E-023
  0.73700000000000010         -2.6207867669217239E-023
  0.74000000000000021          5.5962635270179309E-023
  0.74300000000000010          1.5368075994417852E-022
  0.74600000000000022          2.5790027593299413E-022
  0.74900000000000011          3.5626522193353798E-022
  0.75200000000000022          4.3388319947490249E-022
  0.75500000000000012          4.7462942748376771E-022
  0.75800000000000001          4.6294491326447307E-022
  0.76100000000000012          3.8602071115586333E-022
  0.76400000000000001          2.3618472109905898E-022
  0.76700000000000013          1.3235656100955661E-023
  0.77000000000000002         -2.7358354237507036E-022
  0.77300000000000013         -6.0431594100711223E-022
  0.77600000000000002         -9.4805519268002528E-022
  0.77900000000000014         -1.2640354798054343E-021
  0.78200000000000003         -1.5042356152966513E-021
  0.78500000000000014         -1.6175499467311978E-021
  0.78800000000000003         -1.5553975929046839E-021
  0.79100000000000015         -1.2784316910872144E-021
  0.79400000000000004         -7.6379906352277257E-022
  0.79700000000000015         -1.2193863599648705E-023
  0.80000000000000004          9.4619253317614012E-022
  0.80300000000000016          2.0478292989825514E-021
  0.80600000000000005          3.1950755496441936E-021
  0.80900000000000016          4.2593332262802588E-021
  0.81200000000000006          5.0886894495847034E-021
  0.81500000000000017          5.5202453328811359E-021
  0.81800000000000006          5.3967945356772811E-021
  0.82100000000000017          4.5869549476049496E-021
  0.82400000000000007          3.0072132888549120E-021
  0.82700000000000018          6.4380007712512751E-022
  0.83000000000000007         -2.4281998868187725E-021
  0.83300000000000018         -6.0313601529825361E-021
  0.83600000000000008         -9.8809383423850238E-021
  0.83900000000000019         -1.3591005586514855E-020
  0.84200000000000008         -1.6693660084951546E-020
  0.84500000000000020         -1.8672200662307975E-020
  0.84800000000000009         -1.9007900565059502E-020
  0.85100000000000020         -1.7238324645293292E-020
  0.85400000000000009         -1.3023411977403950E-020
  0.85700000000000021         -6.2138360715607359E-021
  0.86000000000000010          3.0853822568030419E-021
  0.86300000000000021          1.4464133766543994E-020
  0.86600000000000010          2.7177885975363465E-020
  0.86900000000000022          4.0148055043732360E-020
  0.87200000000000011          5.1998874736242944E-020
  0.87500000000000022          6.1135346690576946E-020
  0.87800000000000011          6.5863621494155923E-020
  0.88100000000000001          6.4550421409261990E-020
  0.88400000000000012          5.5813981805703320E-020
  0.88700000000000001          3.8733289665555287E-020
  0.89000000000000012          1.3057830444588838E-020
  0.89300000000000002         -2.0604217519230162E-020
  0.89600000000000013         -6.0643838639530532E-020
  0.89900000000000002         -1.0438082007225084E-019
  0.90200000000000014         -1.4808870689919887E-019
  0.90500000000000003         -1.8713459360892280E-019
  0.90800000000000014         -2.1624549262168996E-019
  0.91100000000000003         -2.2990304967150118E-019
  0.91400000000000015         -2.2285537233945447E-019
  0.91700000000000004         -1.9072058910556581E-019
  0.92000000000000015         -1.3064212239623506E-019
  0.92300000000000004         -4.1940879892548542E-020
  0.92600000000000016          7.3302369074080176E-020
  0.92900000000000005          2.0980672053582430E-019
  0.93200000000000016          3.5887147012205415E-019
  0.93500000000000005          5.0844630668682876E-019
  0.93800000000000017          6.4355120947465684E-019
  0.94100000000000006          7.4708221935844154E-019
  0.94400000000000017          8.0101024487582815E-019
  0.94700000000000006          7.8794548600479460E-019
  0.95000000000000018          6.9299417209753737E-019
  0.95300000000000007          5.0579493010592912E-019
  0.95600000000000018          2.2257707649215102E-019
  0.95900000000000007         -1.5195092961756814E-019
  0.96200000000000019         -6.0310369049779443E-019
  0.96500000000000008         -1.1053361661080888E-018
  0.96800000000000019         -1.6222006358275647E-018
  0.97100000000000009         -2.1073277187300932E-018
  0.97400000000000020         -2.5065672264676722E-018
  0.97700000000000009         -2.7613397904137570E-018
  0.98000000000000020         -2.8131522019798947E-018
  0.98300000000000010         -2.6091104102543864E-018
  0.98600000000000021         -2.1081369525725696E-018
  0.98900000000000010         -1.2874727196854088E-018
  0.99200000000000021         -1.4892204871053674E-019
  0.99500000000000011          1.2757732333956816E-018
  0.99800000000000022          2.9211221763781910E-018
   1.0010000000000001          4.6863115906600383E-018
   1.0040000000000002          6.4364949886747883E-018
   1.0070000000000001          8.0074426234166903E-018
   1.0100000000000000          9.2138591481511594E-018
   1.0130000000000001          9.8614043931555888E-018
   1.0160000000000000          9.7621378548239414E-018
   1.0190000000000001          8.7527527132185126E-018
   1.0220000000000000          6.7145819377223150E-018
   1.0250000000000001          3.5939821474824087E-018
   1.0280000000000000         -5.7859510916045150E-019
   1.0310000000000001         -5.6727925311693020E-018
   1.0340000000000000         -1.1447864299225179E-017
   1.0370000000000001         -1.7549520690667459E-017
   1.0400000000000000         -2.3515960336400357E-017
   1.0430000000000001         -2.8794418257518390E-017
   1.0460000000000000         -3.2769095597794440E-017
   1.0490000000000002         -3.4800403823404235E-017
   1.0520000000000000         -3.4274552878611555E-017
   1.0550000000000002         -3.0661488418172734E-017
   1.0580000000000001         -2.3577968061007913E-017
   1.0610000000000002         -1.2851522430847523E-017
   1.0640000000000001          1.4196680035856768E-018
   1.0670000000000002          1.8817081115087410E-017
   1.0700000000000001          3.8568323537386921E-017
   1.0730000000000002          5.9535962370087343E-017
   1.0760000000000001          8.0234072737051031E-017
   1.0790000000000002          9.8877024799111181E-017
   1.0820000000000001          1.1346283473372518E-016
   1.0850000000000002          1.2189138010382045E-016
   1.0880000000000001          1.2211510462630342E-016
   1.0910000000000002          1.1231649015333169E-016
   1.0940000000000001          9.1103480382387806E-017
   1.0970000000000002          5.7710901502228232E-017
