 -0.39999999999999997          0.0000000000000000     
 -0.39699999999999996          0.0000000000000000     
 -0.39399999999999996          0.0000000000000000     
 -0.39099999999999996          0.0000000000000000     
 -0.38799999999999996          0.0000000000000000     
 -0.38499999999999995          0.0000000000000000     
 -0.38199999999999995          0.0000000000000000     
 -0.37899999999999995          0.0000000000000000     
 -0.37599999999999995          0.0000000000000000     
 -0.37299999999999994          0.0000000000000000     
 -0.37000000000000000          0.0000000000000000     
 -0.36699999999999999          0.0000000000000000     
 -0.36399999999999999          0.0000000000000000     
 -0.36099999999999999          0.0000000000000000     
 -0.35799999999999998          0.0000000000000000     
 -0.35499999999999998          0.0000000000000000     
 -0.35199999999999998          0.0000000000000000     
 -0.34899999999999998          0.0000000000000000     
 -0.34599999999999997          0.0000000000000000     
 -0.34299999999999997          0.0000000000000000     
 -0.33999999999999997          0.0000000000000000     
 -0.33699999999999997          0.0000000000000000     
 -0.33399999999999996          0.0000000000000000     
 -0.33099999999999996          0.0000000000000000     
 -0.32799999999999996          0.0000000000000000     
 -0.32499999999999996          0.0000000000000000     
 -0.32199999999999995          0.0000000000000000     
 -0.31899999999999995          0.0000000000000000     
 -0.31599999999999995          0.0000000000000000     
 -0.31299999999999994          0.0000000000000000     
 -0.30999999999999994          0.0000000000000000     
 -0.30699999999999994          0.0000000000000000     
 -0.30399999999999994          0.0000000000000000     
 -0.30099999999999993          0.0000000000000000     
 -0.29799999999999993          0.0000000000000000     
 -0.29499999999999998          0.0000000000000000     
 -0.29199999999999998          0.0000000000000000     
 -0.28899999999999998          0.0000000000000000     
 -0.28599999999999998          0.0000000000000000     
 -0.28299999999999997          0.0000000000000000     
 -0.27999999999999997          0.0000000000000000     
 -0.27699999999999997          0.0000000000000000     
 -0.27399999999999997          0.0000000000000000     
 -0.27099999999999996          0.0000000000000000     
 -0.26799999999999996          0.0000000000000000     
 -0.26499999999999996          0.0000000000000000     
 -0.26199999999999996          0.0000000000000000     
 -0.25899999999999995          0.0000000000000000     
 -0.25599999999999995          0.0000000000000000     
 -0.25300000000000000          0.0000000000000000     
 -0.24999999999999997          0.0000000000000000     
 -0.24699999999999997          0.0000000000000000     
 -0.24399999999999997          0.0000000000000000     
 -0.24099999999999996          0.0000000000000000     
 -0.23799999999999996          0.0000000000000000     
 -0.23499999999999996          0.0000000000000000     
 -0.23199999999999996          0.0000000000000000     
 -0.22899999999999995          0.0000000000000000     
 -0.22599999999999995          0.0000000000000000     
 -0.22299999999999998          0.0000000000000000     
 -0.21999999999999997          0.0000000000000000     
 -0.21699999999999997          0.0000000000000000     
 -0.21399999999999997          0.0000000000000000     
 -0.21099999999999997          0.0000000000000000     
 -0.20799999999999996          0.0000000000000000     
 -0.20499999999999996          0.0000000000000000     
 -0.20199999999999996          0.0000000000000000     
 -0.19899999999999995          0.0000000000000000     
 -0.19599999999999995          0.0000000000000000     
 -0.19299999999999995          0.0000000000000000     
 -0.18999999999999997          0.0000000000000000     
 -0.18699999999999997          0.0000000000000000     
 -0.18399999999999997          0.0000000000000000     
 -0.18099999999999997          0.0000000000000000     
 -0.17799999999999996          0.0000000000000000     
 -0.17499999999999996          0.0000000000000000     
 -0.17199999999999996          0.0000000000000000     
 -0.16899999999999996          0.0000000000000000     
 -0.16599999999999995          0.0000000000000000     
 -0.16299999999999995          0.0000000000000000     
 -0.15999999999999998          0.0000000000000000     
 -0.15699999999999997          0.0000000000000000     
 -0.15399999999999997          0.0000000000000000     
 -0.15099999999999997          0.0000000000000000     
 -0.14799999999999996          0.0000000000000000     
 -0.14499999999999996          0.0000000000000000     
 -0.14199999999999996          0.0000000000000000     
 -0.13899999999999996          0.0000000000000000     
 -0.13599999999999995          0.0000000000000000     
 -0.13299999999999995          0.0000000000000000     
 -0.12999999999999995          0.0000000000000000     
 -0.12699999999999995          0.0000000000000000     
 -0.12399999999999994          0.0000000000000000     
 -0.12099999999999994          0.0000000000000000     
 -0.11799999999999994          0.0000000000000000     
 -0.11499999999999994          0.0000000000000000     
 -0.11199999999999993          0.0000000000000000     
 -0.10899999999999999          0.0000000000000000     
 -0.10599999999999998          0.0000000000000000     
 -0.10299999999999998          0.0000000000000000     
  -9.9999999999999978E-002     0.0000000000000000     
  -9.6999999999999975E-002     0.0000000000000000     
  -9.3999999999999972E-002     0.0000000000000000     
  -9.0999999999999970E-002     0.0000000000000000     
  -8.7999999999999967E-002     0.0000000000000000     
  -8.4999999999999964E-002     0.0000000000000000     
  -8.1999999999999962E-002     0.0000000000000000     
  -7.8999999999999959E-002     0.0000000000000000     
  -7.5999999999999956E-002     0.0000000000000000     
  -7.2999999999999954E-002     0.0000000000000000     
  -6.9999999999999951E-002     0.0000000000000000     
  -6.6999999999999948E-002     0.0000000000000000     
  -6.3999999999999946E-002     0.0000000000000000     
  -6.0999999999999943E-002     0.0000000000000000     
  -5.7999999999999940E-002     0.0000000000000000     
  -5.4999999999999938E-002     0.0000000000000000     
  -5.1999999999999935E-002     0.0000000000000000     
  -4.8999999999999932E-002     0.0000000000000000     
  -4.5999999999999985E-002     0.0000000000000000     
  -4.2999999999999983E-002     0.0000000000000000     
  -3.9999999999999980E-002     0.0000000000000000     
  -3.6999999999999977E-002     0.0000000000000000     
  -3.3999999999999975E-002     0.0000000000000000     
  -3.0999999999999972E-002     0.0000000000000000     
  -2.7999999999999969E-002     0.0000000000000000     
  -2.4999999999999967E-002     0.0000000000000000     
  -2.1999999999999964E-002     0.0000000000000000     
  -1.8999999999999961E-002     0.0000000000000000     
  -1.5999999999999959E-002     0.0000000000000000     
  -1.2999999999999956E-002     0.0000000000000000     
  -9.9999999999999534E-003     0.0000000000000000     
  -6.9999999999999507E-003     0.0000000000000000     
  -3.9999999999999480E-003     0.0000000000000000     
  -9.9999999999994538E-004     0.0000000000000000     
   2.0000000000000573E-003     0.0000000000000000     
   5.0000000000000600E-003     0.0000000000000000     
   8.0000000000000626E-003     0.0000000000000000     
   1.1000000000000065E-002     0.0000000000000000     
   1.4000000000000068E-002     0.0000000000000000     
   1.7000000000000015E-002     0.0000000000000000     
   2.0000000000000018E-002     0.0000000000000000     
   2.3000000000000020E-002     0.0000000000000000     
   2.6000000000000023E-002     0.0000000000000000     
   2.9000000000000026E-002     0.0000000000000000     
   3.2000000000000028E-002     0.0000000000000000     
   3.5000000000000031E-002     0.0000000000000000     
   3.8000000000000034E-002     0.0000000000000000     
   4.1000000000000036E-002     0.0000000000000000     
   4.4000000000000039E-002     0.0000000000000000     
   4.7000000000000042E-002     0.0000000000000000     
   5.0000000000000044E-002     0.0000000000000000     
   5.3000000000000047E-002     0.0000000000000000     
   5.6000000000000050E-002     0.0000000000000000     
   5.9000000000000052E-002     0.0000000000000000     
   6.2000000000000055E-002     0.0000000000000000     
   6.5000000000000058E-002     0.0000000000000000     
   6.8000000000000060E-002     0.0000000000000000     
   7.1000000000000063E-002     0.0000000000000000     
   7.4000000000000066E-002     0.0000000000000000     
   7.7000000000000068E-002     0.0000000000000000     
   8.0000000000000016E-002     0.0000000000000000     
   8.3000000000000018E-002     0.0000000000000000     
   8.6000000000000021E-002     0.0000000000000000     
   8.9000000000000024E-002     0.0000000000000000     
   9.2000000000000026E-002     0.0000000000000000     
   9.5000000000000029E-002     0.0000000000000000     
   9.8000000000000032E-002     0.0000000000000000     
  0.10100000000000003          0.0000000000000000     
  0.10400000000000004          0.0000000000000000     
  0.10700000000000004          0.0000000000000000     
  0.11000000000000004          0.0000000000000000     
  0.11300000000000004          0.0000000000000000     
  0.11600000000000005          0.0000000000000000     
  0.11900000000000005          0.0000000000000000     
  0.12200000000000005          0.0000000000000000     
  0.12500000000000006          0.0000000000000000     
  0.12800000000000006          0.0000000000000000     
  0.13100000000000006          0.0000000000000000     
  0.13400000000000006          0.0000000000000000     
  0.13700000000000007          0.0000000000000000     
  0.14000000000000007          0.0000000000000000     
  0.14300000000000007          0.0000000000000000     
  0.14600000000000007          0.0000000000000000     
  0.14900000000000008          0.0000000000000000     
  0.15200000000000008          0.0000000000000000     
  0.15500000000000008          0.0000000000000000     
  0.15800000000000008          0.0000000000000000     
  0.16100000000000009          0.0000000000000000     
  0.16400000000000009          0.0000000000000000     
  0.16700000000000009          0.0000000000000000     
  0.17000000000000010          0.0000000000000000     
  0.17300000000000010          0.0000000000000000     
  0.17600000000000010          0.0000000000000000     
  0.17899999999999999          0.0000000000000000     
  0.18200000000000000          0.0000000000000000     
  0.18500000000000000          0.0000000000000000     
  0.18800000000000000          0.0000000000000000     
  0.19100000000000000          0.0000000000000000     
  0.19400000000000001          0.0000000000000000     
  0.19700000000000001          0.0000000000000000     
  0.20000000000000001          0.0000000000000000     
  0.20300000000000001          0.0000000000000000     
  0.20600000000000002          0.0000000000000000     
  0.20900000000000002          0.0000000000000000     
  0.21200000000000002          0.0000000000000000     
  0.21500000000000002          0.0000000000000000     
  0.21800000000000003          0.0000000000000000     
  0.22100000000000003          0.0000000000000000     
  0.22400000000000003          0.0000000000000000     
  0.22700000000000004          0.0000000000000000     
  0.23000000000000004          0.0000000000000000     
  0.23300000000000004          0.0000000000000000     
  0.23600000000000004          0.0000000000000000     
  0.23900000000000005          0.0000000000000000     
  0.24200000000000005          0.0000000000000000     
  0.24500000000000005          0.0000000000000000     
  0.24800000000000005          0.0000000000000000     
  0.25100000000000006          0.0000000000000000     
  0.25400000000000006          0.0000000000000000     
  0.25700000000000006          0.0000000000000000     
  0.26000000000000006          0.0000000000000000     
  0.26300000000000007          0.0000000000000000     
  0.26600000000000007          0.0000000000000000     
  0.26900000000000007          0.0000000000000000     
  0.27200000000000008          0.0000000000000000     
  0.27500000000000008          0.0000000000000000     
  0.27800000000000008          0.0000000000000000     
  0.28100000000000008          0.0000000000000000     
  0.28400000000000009          0.0000000000000000     
  0.28700000000000009          0.0000000000000000     
  0.29000000000000009          0.0000000000000000     
  0.29300000000000009          0.0000000000000000     
  0.29600000000000010          0.0000000000000000     
  0.29900000000000010          0.0000000000000000     
  0.30200000000000010          0.0000000000000000     
  0.30499999999999999          0.0000000000000000     
  0.30800000000000000          0.0000000000000000     
  0.31100000000000000          0.0000000000000000     
  0.31400000000000000          0.0000000000000000     
  0.31700000000000000          0.0000000000000000     
  0.32000000000000001          0.0000000000000000     
  0.32300000000000001          0.0000000000000000     
  0.32600000000000001          0.0000000000000000     
  0.32900000000000001          0.0000000000000000     
  0.33200000000000002          0.0000000000000000     
  0.33500000000000002          0.0000000000000000     
  0.33800000000000002          0.0000000000000000     
  0.34100000000000003          0.0000000000000000     
  0.34400000000000003          0.0000000000000000     
  0.34700000000000003          0.0000000000000000     
  0.35000000000000003          0.0000000000000000     
  0.35300000000000004          0.0000000000000000     
  0.35600000000000004          0.0000000000000000     
  0.35900000000000004          0.0000000000000000     
  0.36200000000000004          0.0000000000000000     
  0.36500000000000005          0.0000000000000000     
  0.36800000000000005          0.0000000000000000     
  0.37100000000000005          0.0000000000000000     
  0.37400000000000005          0.0000000000000000     
  0.37700000000000006          0.0000000000000000     
  0.38000000000000006          0.0000000000000000     
  0.38300000000000006          0.0000000000000000     
  0.38600000000000007          0.0000000000000000     
  0.38900000000000007          0.0000000000000000     
  0.39200000000000007          0.0000000000000000     
  0.39500000000000007          0.0000000000000000     
  0.39800000000000008          0.0000000000000000     
  0.40100000000000008          0.0000000000000000     
  0.40400000000000008          0.0000000000000000     
  0.40700000000000008          0.0000000000000000     
  0.41000000000000009          0.0000000000000000     
  0.41300000000000009          0.0000000000000000     
  0.41600000000000009          0.0000000000000000     
  0.41900000000000009          0.0000000000000000     
  0.42200000000000010          0.0000000000000000     
  0.42500000000000010          0.0000000000000000     
  0.42800000000000010          0.0000000000000000     
  0.43100000000000011          0.0000000000000000     
  0.43400000000000000          0.0000000000000000     
  0.43700000000000000          0.0000000000000000     
  0.44000000000000000          0.0000000000000000     
  0.44300000000000000          0.0000000000000000     
  0.44600000000000001          0.0000000000000000     
  0.44900000000000001          0.0000000000000000     
  0.45200000000000001          0.0000000000000000     
  0.45500000000000002          0.0000000000000000     
  0.45800000000000002          0.0000000000000000     
  0.46100000000000002          0.0000000000000000     
  0.46400000000000002          0.0000000000000000     
  0.46700000000000003          0.0000000000000000     
  0.47000000000000003          0.0000000000000000     
  0.47300000000000003          0.0000000000000000     
  0.47600000000000003          0.0000000000000000     
  0.47900000000000004          0.0000000000000000     
  0.48200000000000004          0.0000000000000000     
  0.48500000000000004          0.0000000000000000     
  0.48800000000000004          0.0000000000000000     
  0.49100000000000005          0.0000000000000000     
  0.49400000000000005          0.0000000000000000     
  0.49700000000000005          0.0000000000000000     
  0.50000000000000000          0.0000000000000000     
  0.50300000000000011          0.0000000000000000     
  0.50600000000000001          0.0000000000000000     
  0.50900000000000012          0.0000000000000000     
  0.51200000000000001          0.0000000000000000     
  0.51500000000000012          1.2075594749696467E-041
  0.51800000000000002         -2.2678817231560207E-041
  0.52100000000000013          3.2803574043653824E-041
  0.52400000000000002          4.6911408552402008E-041
  0.52700000000000014         -8.4173569679174429E-041
  0.53000000000000003         -1.7334381273291048E-040
  0.53300000000000014         -1.1101406577510187E-039
  0.53600000000000003         -1.2313387945065031E-040
  0.53900000000000015         -6.5150124629089122E-041
  0.54200000000000004          4.3341934556550619E-040
  0.54500000000000015          2.5821269167620873E-039
  0.54800000000000004          4.3140300565561864E-039
  0.55100000000000016         -1.9822877286361428E-040
  0.55400000000000005         -1.4196131990780572E-039
  0.55700000000000016         -1.5276778928305767E-039
  0.56000000000000005         -3.9240361341181788E-040
  0.56299999999999994         -8.8579337302538015E-039
  0.56600000000000006         -1.8810042449797476E-038
  0.56899999999999995         -2.5739539451668003E-038
  0.57200000000000006         -2.4189875030583630E-038
  0.57499999999999996         -1.4591004515171282E-038
  0.57800000000000007          1.1235343226872165E-038
  0.58099999999999996          3.2135763774421984E-038
  0.58400000000000007          6.6051249033257730E-038
  0.58699999999999997          9.8334864267824080E-038
  0.59000000000000008          1.1822935514415621E-037
  0.59299999999999997          1.1322917310736733E-037
  0.59600000000000009          7.1369734206942623E-038
  0.59899999999999998         -1.3187114393208818E-038
  0.60200000000000009         -1.4039812171310934E-037
  0.60500000000000020         -2.9315106077912939E-037
  0.60800000000000010         -4.4105528363929630E-037
  0.61100000000000021         -5.3886495814977426E-037
  0.61400000000000010         -5.3270299385384759E-037
  0.61700000000000021         -3.7154569678794396E-037
  0.62000000000000011         -2.1840032033353786E-038
  0.62300000000000022          5.1319242297266775E-037
  0.62600000000000011          1.1771738063038326E-036
  0.62900000000000000          1.8502681932002278E-036
  0.63200000000000012          2.3514446354791057E-036
  0.63500000000000001          2.4584717252329763E-036
  0.63800000000000012          1.9485953571964437E-036
  0.64100000000000001          6.5842028743574871E-037
  0.64400000000000013         -1.4443062246086801E-036
  0.64700000000000002         -4.1905273598922603E-036
  0.65000000000000013         -7.1605051320780961E-036
  0.65300000000000002         -9.6777764262796315E-036
  0.65600000000000014         -1.0867452085769450E-035
  0.65900000000000003         -9.7923573434463764E-036
  0.66200000000000014         -5.6665492120186926E-036
  0.66500000000000004          1.8741820640519818E-036
  0.66800000000000015          1.2488714904860466E-035
  0.67100000000000004          2.4900077981051820E-035
  0.67400000000000015          3.6798921467387856E-035
  0.67700000000000005          4.4963015319311606E-035
  0.68000000000000016          4.5656016756026398E-035
  0.68300000000000005          3.5326391173048386E-035
  0.68600000000000017          1.1562232408434058E-035
  0.68900000000000006         -2.5822885939342701E-035
  0.69200000000000017         -7.3781423444294917E-035
  0.69500000000000006         -1.2537677357893989E-034
  0.69800000000000018         -1.6978553074486191E-034
  0.70100000000000007         -1.9322863783068026E-034
  0.70400000000000018         -1.8099280340929838E-034
  0.70700000000000007         -1.2051144218181156E-034
  0.71000000000000019         -5.2147562922073931E-036
  0.71300000000000008          1.6143814339503603E-034
  0.71600000000000019          3.6260507734082894E-034
  0.71900000000000008          5.6642967241905809E-034
  0.72200000000000020          7.2719261728466428E-034
  0.72500000000000009          7.9008558198440449E-034
  0.72800000000000020          6.9995301021742305E-034
  0.73100000000000009          4.1358912131338518E-034
  0.73400000000000021         -8.5779749990639879E-035
  0.73700000000000010         -7.7420238103961198E-034
  0.74000000000000021         -1.5761398536819906E-033
  0.74300000000000010         -2.3607345823028983E-033
  0.74600000000000022         -2.9487494678349441E-033
  0.74900000000000011         -3.1327167754436726E-033
  0.75200000000000022         -2.7109119456638059E-033
  0.75500000000000012         -1.5330312439962406E-033
  0.75800000000000001          4.4782161340334032E-034
  0.76100000000000012          3.1255880369526933E-033
  0.76400000000000001          6.2054933134643038E-033
  0.76700000000000013          9.1946901145606710E-033
  0.77000000000000002          1.1430868751247282E-032
  0.77300000000000013          1.2156714558126607E-032
  0.77600000000000002          1.0641326369309857E-032
  0.77900000000000014          6.3405269520281072E-033
  0.78200000000000003         -9.2283875280653207E-034
  0.78500000000000014         -1.0788204720490406E-032
  0.78800000000000003         -2.2234032806311536E-032
  0.79100000000000015         -3.3543576796567907E-032
  0.79400000000000004         -4.2397509390522825E-032
  0.79700000000000015         -4.6119253950165917E-032
  0.80000000000000004         -4.2077174740545184E-032
  0.80300000000000016         -2.8218724250709161E-032
  0.80600000000000005         -3.6770256593421917E-033
  0.80900000000000016          3.0643067819384295E-032
  0.81200000000000006          7.1619978917180259E-032
  0.81500000000000017          1.1374430246829620E-031
  0.81800000000000006          1.4934599859003621E-031
  0.82100000000000017          1.6930959945653754E-031
  0.82400000000000007          1.6430391647684584E-031
  0.82700000000000018          1.2646466570928677E-031
  0.83000000000000007          5.1364251230968015E-032
  0.83300000000000018         -6.0003316063832914E-032
  0.83600000000000008         -1.9958453120477735E-031
  0.83900000000000019         -3.5138775144902531E-031
  0.84200000000000008         -4.9176823876493715E-031
  0.84500000000000020         -5.9119695646600626E-031
  0.84800000000000009         -6.1766485554684042E-031
  0.85100000000000020         -5.4162828380362808E-031
  0.85400000000000009         -3.4209876213319820E-031
  0.85700000000000021         -1.3153102708543213E-032
  0.86000000000000010          4.3015227690641240E-031
  0.86300000000000021          9.4768561242014727E-031
  0.86600000000000010          1.4732353359196865E-030
  0.86900000000000022          1.9177206893503017E-030
  0.87200000000000011          2.1773471730954284E-030
  0.87500000000000022          2.1468097646357125E-030
  0.87800000000000011          1.7368237745339837E-030
  0.88100000000000001          8.9430850875159714E-031
  0.88400000000000012         -3.7737870314109608E-031
  0.88700000000000001         -2.0015274519641367E-030
  0.89000000000000012         -3.8182776192802785E-030
  0.89300000000000002         -5.5856654792035006E-030
  0.89600000000000013         -6.9945059191652625E-030
  0.89900000000000002         -7.6987502773711511E-030
  0.90200000000000014         -7.3608398547163293E-030
  0.90500000000000003         -5.7091191515598478E-030
  0.90800000000000014         -2.6015155080534581E-030
  0.91100000000000003          1.9128562093907382E-030
  0.91400000000000015          7.5445506933065434E-030
  0.91700000000000004          1.3738423288216995E-029
  0.92000000000000015          1.9682727751736270E-029
  0.92300000000000004          2.4361033504336381E-029
  0.92600000000000016          2.6650907588784173E-029
  0.92900000000000005          2.5467269096488041E-029
  0.93200000000000016          1.9940904350807118E-029
  0.93500000000000005          9.6146811055090505E-030
  0.93800000000000017         -5.3673130130756101E-030
  0.94100000000000006         -2.4108284352598124E-029
  0.94400000000000017         -4.4877865286134138E-029
  0.94700000000000006         -6.5133286035855310E-029
  0.95000000000000018         -8.1667557723915384E-029
  0.95300000000000007         -9.0897113979053203E-029
  0.95600000000000018         -8.9285072668478694E-029
  0.95900000000000007         -7.3874874978071149E-029
  0.96200000000000019         -4.2887070153868088E-029
  0.96500000000000008          3.6899168289503675E-030
  0.96800000000000019          6.3601395748733093E-029
  0.97100000000000009          1.3201624556744638E-028
  0.97400000000000020          2.0149935355727994E-028
  0.97700000000000009          2.6234639347769494E-028
  0.98000000000000020          3.0333008663175387E-028
  0.98300000000000010          3.1286382780523562E-028
  0.98600000000000021          2.8053173702007944E-028
  0.98900000000000010          1.9886971526693747E-028
  0.99200000000000021          6.5220541581246332E-029
  0.99500000000000011         -1.1657328137992441E-028
  0.99800000000000022         -3.3491201149578876E-028
   1.0010000000000001         -5.6990193483134405E-028
   1.0040000000000002         -7.9380206596239144E-028
   1.0070000000000001         -9.7265328641823064E-028
   1.0100000000000000         -1.0691813722162380E-027
   1.0130000000000001         -1.0469228711945328E-027
   1.0160000000000000         -8.7534533602214442E-028
   1.0190000000000001         -5.3554617160569231E-028
   1.0220000000000000         -2.5929901249521868E-029
   1.0250000000000001          6.3288393321551654E-028
   1.0280000000000000          1.3947668182236453E-027
   1.0310000000000001          2.1872507854203749E-027
   1.0340000000000000          2.9139058595284700E-027
   1.0370000000000001          3.4604666982082594E-027
   1.0400000000000000          3.7048804832944295E-027
   1.0430000000000001          3.5310258561284128E-027
   1.0460000000000000          2.8452879072341414E-027
   1.0490000000000002          1.5946392443515770E-027
   1.0520000000000000         -2.1568096034787414E-028
   1.0550000000000002         -2.5072267467643507E-027
   1.0580000000000001         -5.1187243849818755E-027
   1.0610000000000002         -7.8043664431064226E-027
   1.0640000000000001         -1.0242263281558979E-026
   1.0670000000000002         -1.2054633876331696E-026
   1.0700000000000001         -1.2840255776284249E-026
   1.0730000000000002         -1.2218313983973625E-026
   1.0760000000000001         -9.8812022600877625E-027
   1.0790000000000002         -5.6520707235165741E-027
   1.0820000000000001          4.5867801171873175E-028
   1.0850000000000002          8.2051167636902075E-027
   1.0880000000000001          1.7073717132420607E-026
   1.0910000000000002          2.6275486607529198E-026
   1.0940000000000001          3.4769483543261240E-026
   1.0970000000000002          4.1322839955551498E-026
