 -0.39999999999999997          0.0000000000000000     
 -0.39699999999999996          0.0000000000000000     
 -0.39399999999999996          0.0000000000000000     
 -0.39099999999999996          0.0000000000000000     
 -0.38799999999999996          0.0000000000000000     
 -0.38499999999999995          0.0000000000000000     
 -0.38199999999999995          0.0000000000000000     
 -0.37899999999999995          0.0000000000000000     
 -0.37599999999999995          0.0000000000000000     
 -0.37299999999999994          0.0000000000000000     
 -0.37000000000000000          0.0000000000000000     
 -0.36699999999999999          0.0000000000000000     
 -0.36399999999999999          0.0000000000000000     
 -0.36099999999999999          0.0000000000000000     
 -0.35799999999999998          0.0000000000000000     
 -0.35499999999999998          0.0000000000000000     
 -0.35199999999999998          0.0000000000000000     
 -0.34899999999999998          0.0000000000000000     
 -0.34599999999999997          0.0000000000000000     
 -0.34299999999999997          0.0000000000000000     
 -0.33999999999999997          0.0000000000000000     
 -0.33699999999999997          0.0000000000000000     
 -0.33399999999999996          0.0000000000000000     
 -0.33099999999999996          0.0000000000000000     
 -0.32799999999999996          0.0000000000000000     
 -0.32499999999999996          0.0000000000000000     
 -0.32199999999999995          0.0000000000000000     
 -0.31899999999999995          0.0000000000000000     
 -0.31599999999999995          0.0000000000000000     
 -0.31299999999999994          0.0000000000000000     
 -0.30999999999999994          0.0000000000000000     
 -0.30699999999999994          0.0000000000000000     
 -0.30399999999999994          0.0000000000000000     
 -0.30099999999999993          0.0000000000000000     
 -0.29799999999999993          0.0000000000000000     
 -0.29499999999999998          0.0000000000000000     
 -0.29199999999999998          0.0000000000000000     
 -0.28899999999999998          0.0000000000000000     
 -0.28599999999999998          0.0000000000000000     
 -0.28299999999999997          0.0000000000000000     
 -0.27999999999999997          0.0000000000000000     
 -0.27699999999999997          0.0000000000000000     
 -0.27399999999999997          0.0000000000000000     
 -0.27099999999999996          0.0000000000000000     
 -0.26799999999999996          0.0000000000000000     
 -0.26499999999999996          0.0000000000000000     
 -0.26199999999999996          0.0000000000000000     
 -0.25899999999999995          0.0000000000000000     
 -0.25599999999999995          0.0000000000000000     
 -0.25300000000000000          0.0000000000000000     
 -0.24999999999999997          0.0000000000000000     
 -0.24699999999999997          0.0000000000000000     
 -0.24399999999999997          0.0000000000000000     
 -0.24099999999999996          0.0000000000000000     
 -0.23799999999999996          0.0000000000000000     
 -0.23499999999999996          0.0000000000000000     
 -0.23199999999999996          0.0000000000000000     
 -0.22899999999999995          0.0000000000000000     
 -0.22599999999999995          0.0000000000000000     
 -0.22299999999999998          0.0000000000000000     
 -0.21999999999999997          0.0000000000000000     
 -0.21699999999999997          0.0000000000000000     
 -0.21399999999999997          0.0000000000000000     
 -0.21099999999999997          0.0000000000000000     
 -0.20799999999999996          0.0000000000000000     
 -0.20499999999999996          0.0000000000000000     
 -0.20199999999999996          0.0000000000000000     
 -0.19899999999999995          0.0000000000000000     
 -0.19599999999999995          0.0000000000000000     
 -0.19299999999999995          0.0000000000000000     
 -0.18999999999999997          0.0000000000000000     
 -0.18699999999999997          0.0000000000000000     
 -0.18399999999999997          0.0000000000000000     
 -0.18099999999999997          0.0000000000000000     
 -0.17799999999999996          0.0000000000000000     
 -0.17499999999999996          0.0000000000000000     
 -0.17199999999999996          0.0000000000000000     
 -0.16899999999999996          0.0000000000000000     
 -0.16599999999999995          0.0000000000000000     
 -0.16299999999999995          0.0000000000000000     
 -0.15999999999999998          0.0000000000000000     
 -0.15699999999999997          0.0000000000000000     
 -0.15399999999999997          0.0000000000000000     
 -0.15099999999999997          0.0000000000000000     
 -0.14799999999999996          0.0000000000000000     
 -0.14499999999999996          0.0000000000000000     
 -0.14199999999999996          0.0000000000000000     
 -0.13899999999999996          0.0000000000000000     
 -0.13599999999999995          0.0000000000000000     
 -0.13299999999999995          0.0000000000000000     
 -0.12999999999999995          0.0000000000000000     
 -0.12699999999999995          0.0000000000000000     
 -0.12399999999999994          0.0000000000000000     
 -0.12099999999999994          0.0000000000000000     
 -0.11799999999999994          0.0000000000000000     
 -0.11499999999999994          0.0000000000000000     
 -0.11199999999999993          0.0000000000000000     
 -0.10899999999999999          0.0000000000000000     
 -0.10599999999999998          0.0000000000000000     
 -0.10299999999999998          0.0000000000000000     
  -9.9999999999999978E-002     0.0000000000000000     
  -9.6999999999999975E-002     0.0000000000000000     
  -9.3999999999999972E-002     0.0000000000000000     
  -9.0999999999999970E-002     0.0000000000000000     
  -8.7999999999999967E-002     0.0000000000000000     
  -8.4999999999999964E-002     0.0000000000000000     
  -8.1999999999999962E-002     0.0000000000000000     
  -7.8999999999999959E-002     0.0000000000000000     
  -7.5999999999999956E-002     0.0000000000000000     
  -7.2999999999999954E-002     0.0000000000000000     
  -6.9999999999999951E-002     0.0000000000000000     
  -6.6999999999999948E-002     0.0000000000000000     
  -6.3999999999999946E-002     0.0000000000000000     
  -6.0999999999999943E-002     0.0000000000000000     
  -5.7999999999999940E-002     0.0000000000000000     
  -5.4999999999999938E-002     0.0000000000000000     
  -5.1999999999999935E-002     3.0250583653081207E-042
  -4.8999999999999932E-002     4.6099483347555433E-042
  -4.5999999999999985E-002     0.0000000000000000     
  -4.2999999999999983E-002    -1.5143322287680241E-041
  -3.9999999999999980E-002    -6.1528670650028782E-043
  -3.6999999999999977E-002     5.2418946148199871E-040
  -3.3999999999999975E-002     4.7752860795183492E-040
  -3.0999999999999972E-002    -6.4412499920293575E-040
  -2.7999999999999969E-002    -2.2884538734289366E-039
  -2.4999999999999967E-002    -1.9102173783696572E-039
  -2.1999999999999964E-002     4.4885302243935279E-039
  -1.8999999999999961E-002     1.0539792946769325E-038
  -1.5999999999999959E-002     5.1842644825728140E-039
  -1.2999999999999956E-002    -2.0944472900802657E-038
  -9.9999999999999534E-003    -4.4754095979988389E-038
  -6.9999999999999507E-003    -3.1986137504238176E-038
  -3.9999999999999480E-003     6.8624103304694659E-038
  -9.9999999999994538E-004     1.9273202918985223E-037
   2.0000000000000573E-003     1.4481006111982504E-037
   5.0000000000000600E-003    -2.4661448774800942E-037
   8.0000000000000626E-003    -7.7798177854787795E-037
   1.1000000000000065E-002    -6.8910419205333099E-037
   1.4000000000000068E-002     7.8170422660508013E-037
   1.7000000000000015E-002     3.0359360100568144E-036
   2.0000000000000018E-002     3.2249584207584680E-036
   2.3000000000000020E-002    -1.9695839462672253E-036
   2.6000000000000023E-002    -1.1262809078397785E-035
   2.9000000000000026E-002    -1.4537639245293949E-035
   3.2000000000000028E-002     2.2481468546160536E-036
   3.5000000000000031E-002     3.8914370864839420E-035
   3.8000000000000034E-002     6.2030299626264233E-035
   4.1000000000000036E-002     1.4997465249035031E-035
   4.4000000000000039E-002    -1.2098008263000522E-034
   4.7000000000000042E-002    -2.4677077636694272E-034
   5.0000000000000044E-002    -1.4849109160441868E-034
   5.3000000000000047E-002     3.1504006899843440E-034
   5.6000000000000050E-002     8.9945011801259606E-034
   5.9000000000000052E-002     8.6066610255042881E-034
   6.2000000000000055E-002    -5.4174585428720527E-034
   6.5000000000000058E-002    -2.9256717579950139E-033
   6.8000000000000060E-002    -3.9709685903293332E-033
   7.1000000000000063E-002    -4.6994231224342513E-034
   7.4000000000000066E-002     8.0742142106915963E-033
   7.7000000000000068E-002     1.5492098421354674E-032
   8.0000000000000016E-002     9.8502678741199984E-033
   8.3000000000000018E-002    -1.6489040366984949E-032
   8.6000000000000021E-002    -5.1265239121616649E-032
   8.9000000000000024E-002    -5.6428799854192339E-032
   9.2000000000000026E-002     9.2561875857105321E-033
   9.5000000000000029E-002     1.3830126926597051E-031
   9.8000000000000032E-002     2.3058002519164347E-031
  0.10100000000000003          1.2372059719763412E-031
  0.10400000000000004         -2.6312448669770930E-031
  0.10700000000000004         -7.3844615447783897E-031
  0.11000000000000004         -7.9436599892783955E-031
  0.11300000000000004          8.5632965601613887E-032
  0.11600000000000005          1.7951524754258484E-030
  0.11900000000000005          3.1025231449833142E-030
  0.12200000000000005          2.0136290564808103E-030
  0.12500000000000006         -2.5968638537437651E-030
  0.12800000000000006         -8.8052986625299489E-030
  0.13100000000000006         -1.0943998316332575E-029
  0.13400000000000006         -2.5786101240043166E-030
  0.13700000000000007          1.6870595205155785E-029
  0.14000000000000007          3.6038557855895012E-029
  0.14300000000000007          3.3330470366357428E-029
  0.14600000000000007         -8.5562504348781854E-030
  0.14900000000000008         -7.9968031998888996E-029
  0.15200000000000008         -1.3088664795512640E-028
  0.15500000000000008         -8.8895754138026680E-029
  0.15800000000000008          8.4068510747255963E-029
  0.16100000000000009          3.2298794779916014E-028
  0.16400000000000009          4.3969360456802240E-028
  0.16700000000000009          2.1095804061704157E-028
  0.17000000000000010         -4.2708417257596897E-028
  0.17300000000000010         -1.1861364829663191E-027
  0.17600000000000010         -1.4230276308837778E-027
  0.17899999999999999         -4.7530788252363936E-028
  0.18200000000000000          1.7254815162284549E-027
  0.18500000000000000          4.1251688293150449E-027
  0.18800000000000000          4.6484520243924767E-027
  0.19100000000000000          1.2978024777595468E-027
  0.19400000000000001         -6.0050667949342734E-027
  0.19700000000000001         -1.3906572198629893E-026
  0.20000000000000001         -1.5954100837260629E-026
  0.20300000000000001         -5.7665894295485773E-027
  0.20600000000000002          1.7623690787465032E-026
  0.20900000000000002          4.5080824985058203E-026
  0.21200000000000002          5.7424323994502483E-026
  0.21500000000000002          3.3270530037653802E-026
  0.21800000000000003         -3.6235927888494337E-026
  0.22100000000000003         -1.3221368684463408E-025
  0.22400000000000003         -2.0289393482644618E-025
  0.22700000000000004         -1.7825016286952487E-025
  0.23000000000000004         -6.4041101331165835E-027
  0.23300000000000004          2.9933907010950313E-025
  0.23600000000000004          6.2698381718476851E-025
  0.23900000000000005          7.7488956195329445E-025
  0.24200000000000005          5.2227562155654967E-025
  0.24500000000000005         -2.4637998975499036E-025
  0.24800000000000005         -1.4061871950834700E-024
  0.25100000000000006         -2.5182156717879059E-024
  0.25400000000000006         -2.8933376173000142E-024
  0.25700000000000006         -1.8333551650850318E-024
  0.26000000000000006          9.8633364850315930E-025
  0.26300000000000007          5.1221509631994548E-024
  0.26600000000000007          9.1574383660916895E-024
  0.26900000000000007          1.0891995386442705E-023
  0.27200000000000008          8.0316657397603748E-024
  0.27500000000000008         -7.1374218323821802E-025
  0.27800000000000008         -1.4457648774982780E-023
  0.28100000000000008         -2.9412074136020459E-023
  0.28400000000000009         -3.9161116310027108E-023
  0.28700000000000009         -3.6269200708541000E-023
  0.29000000000000009         -1.5112084057476127E-023
  0.29300000000000009          2.4760408636091343E-023
  0.29600000000000010          7.5930413217791668E-023
  0.29900000000000010          1.2249326747710980E-022
  0.30200000000000010          1.4263841401428553E-022
  0.30499999999999999          1.1472736627529840E-022
  0.30800000000000000          2.5924004919958205E-023
  0.31100000000000000         -1.1888986010767327E-022
  0.31400000000000000         -2.9114431142224934E-022
  0.31700000000000000         -4.3891345247369291E-022
  0.32000000000000001         -4.9587712603574522E-022
  0.32300000000000001         -3.9904836214411507E-022
  0.32600000000000001         -1.1239488232280996E-022
  0.32900000000000001          3.4954718080981641E-022
  0.33200000000000002          9.0605634109876857E-022
  0.33500000000000002          1.4106897849762579E-021
  0.33800000000000002          1.6734440316983799E-021
  0.34100000000000003          1.5051583598384213E-021
  0.34400000000000003          7.7786584990841206E-022
  0.34700000000000003         -5.1215645216700110E-022
  0.35000000000000003         -2.1969522804786419E-021
  0.35300000000000004         -3.9244283901278432E-021
  0.35600000000000004         -5.1959473506925954E-021
  0.35900000000000004         -5.4591305259233942E-021
  0.36200000000000004         -4.2468961559026522E-021
  0.36500000000000005         -1.3382249350459065E-021
  0.36800000000000005          3.0969593288778389E-021
  0.37100000000000005          8.4126250589058539E-021
  0.37400000000000005          1.3501487236871664E-020
  0.37700000000000006          1.6934980441306159E-020
  0.38000000000000006          1.7228146150278843E-020
  0.38300000000000006          1.3197886873383142E-020
  0.38600000000000007          4.3515181485009615E-021
  0.38900000000000007         -8.7804077190433464E-021
  0.39200000000000007         -2.4461504276365935E-020
  0.39500000000000007         -3.9799278181409632E-020
  0.39800000000000008         -5.1075765862275096E-020
  0.40100000000000008         -5.4355744830979032E-020
  0.40400000000000008         -4.6306737229263327E-020
  0.40700000000000008         -2.5103432706718905E-020
  0.41000000000000009          8.7556953259756012E-021
  0.41300000000000009          5.1912770156723395E-020
  0.41600000000000009          9.8072200571202280E-020
  0.41900000000000009          1.3850065119999920E-019
  0.42200000000000010          1.6313749348994051E-019
  0.42500000000000010          1.6223758521685597E-019
  0.42800000000000010          1.2835076921892403E-019
  0.43100000000000011          5.8342365287344216E-020
  0.43400000000000000         -4.4906041033391548E-020
  0.43700000000000000         -1.7149139608218191E-019
  0.44000000000000000         -3.0450103520221030E-019
  0.44300000000000000         -4.2126140984924807E-019
  0.44600000000000001         -4.9587109396914117E-019
  0.44900000000000001         -5.0286922631479676E-019
  0.45200000000000001         -4.2169278409908922E-019
  0.45500000000000002         -2.4135993165926662E-019
  0.45800000000000002          3.5296540429063799E-020
  0.46100000000000002          3.8861011379312253E-019
  0.46400000000000002          7.8099831598052700E-019
  0.46700000000000003          1.1584157771972036E-018
  0.47000000000000003          1.4546921567079288E-018
  0.47300000000000003          1.5987629431730726E-018
  0.47600000000000003          1.5243936870312753E-018
  0.47900000000000004          1.1815718078207542E-018
  0.48200000000000004          5.4830741982899546E-019
  0.48500000000000004         -3.5878769490128687E-019
  0.48800000000000004         -1.4769030786019021E-018
  0.49100000000000005         -2.6942576204366728E-018
  0.49400000000000005         -3.8537589274157667E-018
  0.49700000000000005         -4.7640786403679647E-018
  0.50000000000000000         -5.2185292575791864E-018
  0.50300000000000011         -5.0209335956913490E-018
  0.50600000000000001         -4.0166129027298879E-018
  0.50900000000000012         -2.1254397178581114E-018
  0.51200000000000001          6.2716181611780883E-019
  0.51500000000000012          4.0860832464950273E-018
  0.51800000000000002          7.9542743626688754E-018
  0.52100000000000013          1.1797079957601095E-017
  0.52400000000000002          1.5066482061964296E-017
  0.52700000000000014          1.7146962331466894E-017
  0.53000000000000003          1.7421973500749423E-017
  0.53300000000000014          1.5357082046661704E-017
  0.53600000000000003          1.0592736173478277E-017
  0.53900000000000015          3.0368105003490380E-018
  0.54200000000000004         -7.0553323045075689E-018
  0.54500000000000015         -1.9026560684716611E-017
  0.54800000000000004         -3.1802262298183699E-017
  0.55100000000000016         -4.3924399441908196E-017
  0.55400000000000005         -5.3642245280710604E-017
  0.55700000000000016         -5.9061662519805254E-017
  0.56000000000000005         -5.8347594352524616E-017
  0.56299999999999994         -4.9967291146738627E-017
  0.56600000000000006         -3.2953824843910089E-017
  0.56899999999999995         -7.1626819035867228E-018
  0.57200000000000006          2.6510097804024348E-017
  0.57499999999999996          6.5984238059654993E-017
  0.57800000000000007          1.0795635552591526E-016
  0.58099999999999996          1.4799782367597007E-016
  0.58400000000000007          1.8080430592444846E-016
  0.58699999999999997          2.0060599860087302E-016
  0.59000000000000008          2.0172458816848415E-016
  0.59299999999999997          1.7924816739428503E-016
  0.59600000000000009          1.2977451020965286E-016
  0.59899999999999998          5.2155568873103201E-017
  0.60200000000000009         -5.1840552387032771E-017
  0.60500000000000020         -1.7703586402045866E-016
  0.60800000000000010         -3.1461628628986494E-016
  0.61100000000000021         -4.5224651306494209E-016
  0.61400000000000010         -5.7459526309296157E-016
  0.61700000000000021         -6.6430142368890845E-016
  0.62000000000000011         -7.0337719662565923E-016
  0.62300000000000022         -6.7499097396288040E-016
  0.62600000000000011         -5.6552447945864820E-016
  0.62900000000000000         -3.6676658560339711E-016
  0.63200000000000012         -7.8012422490655171E-017
  0.63500000000000001          2.9213105978845569E-016
  0.63800000000000012          7.2451432067366978E-016
  0.64100000000000001          1.1890066915408496E-015
  0.64400000000000013          1.6450827049241114E-015
  0.64700000000000002          2.0435943303080117E-015
  0.65000000000000013          2.3297773090520762E-015
  0.65300000000000002          2.4474844869221843E-015
  0.65600000000000014          2.3444686884311744E-015
  0.65900000000000003          1.9784142303170753E-015
  0.66200000000000014          1.3233215194796355E-015
  0.66500000000000004          3.7565248455184540E-016
  0.66800000000000015         -8.4037144321570946E-016
  0.67100000000000004         -2.2689478875388482E-015
  0.67400000000000015         -3.8211328891501405E-015
  0.67700000000000005         -5.3760364804206714E-015
  0.68000000000000016         -6.7852535540133106E-015
  0.68300000000000005         -7.8807740526261603E-015
  0.68600000000000017         -8.4864223450234843E-015
  0.68900000000000006         -8.4323433211468565E-015
  0.69200000000000017         -7.5719804934235439E-015
  0.69500000000000006         -5.8004202570531616E-015
  0.69800000000000018         -3.0728182822549151E-015
  0.70100000000000007          5.7882116316921555E-016
  0.70400000000000018          5.0321786511970813E-015
  0.70700000000000007          1.0066464960351618E-014
  0.71000000000000019          1.5361113201814896E-014
  0.71300000000000008          2.0502990810795873E-014
  0.71600000000000019          2.5003058420195586E-014
  0.71900000000000008          2.8322820795302481E-014
  0.72200000000000020          2.9910378508065674E-014
  0.72500000000000009          2.9244885463072744E-014
  0.72800000000000020          2.5886997083362625E-014
  0.73100000000000009          1.9532621348036187E-014
  0.73400000000000021          1.0066087026450963E-014
  0.73700000000000010         -2.3918381076976386E-015
  0.74000000000000021         -1.7446256922741364E-014
  0.74300000000000010         -3.4404825068295027E-014
  0.74600000000000022         -5.2274629022947617E-014
  0.74900000000000011         -6.9782330323725232E-014
  0.75200000000000022         -8.5420711050254196E-014
  0.75500000000000012         -9.7522519100713245E-014
  0.75800000000000001         -1.0436113361565728E-013
  0.76100000000000012         -1.0427559838950889E-013
  0.76400000000000001         -9.5812555735190619E-014
  0.76700000000000013         -7.7881093435629380E-014
  0.77000000000000002         -4.9906634584074387E-014
  0.77300000000000013         -1.1975882389005399E-014
  0.77600000000000002          3.5042934546772604E-014
  0.77900000000000014          8.9414420031231477E-014
  0.78200000000000003          1.4850189158640748E-013
  0.78500000000000014          2.0879156157480064E-013
  0.78800000000000003          2.6598753575407326E-013
  0.79100000000000015          3.1517998140602176E-013
  0.79400000000000004          3.5108874258467261E-013
  0.79700000000000015          3.6837828289798047E-013
  0.80000000000000004          3.6203222733734634E-013
  0.80300000000000016          3.2777147037920983E-013
  0.80600000000000005          2.6249527447456203E-013
  0.80900000000000016          1.6471737699463412E-013
  0.81200000000000006          3.4965891326404733E-014
  0.81500000000000017         -1.2388703480227710E-013
  0.81800000000000006         -3.0639622738180370E-013
  0.82100000000000017         -5.0445526083449682E-013
  0.82400000000000007         -7.0736462227897985E-013
  0.82700000000000018         -9.0209706501650383E-013
  0.83000000000000007         -1.0737465553564399E-012
  0.83300000000000018         -1.2061974543934111E-012
  0.83600000000000008         -1.2829611762191383E-012
  0.83900000000000019         -1.2881942963330775E-012
  0.84200000000000008         -1.2078316255538740E-012
  0.84500000000000020         -1.0307948478928029E-012
  0.84800000000000009         -7.5020531563593330E-013
  0.85100000000000020         -3.6452618488018029E-013
  0.85400000000000009          1.2145109860218844E-013
  0.85700000000000021          6.9584740908269033E-013
  0.86000000000000010          1.3392803368048677E-012
  0.86300000000000021          2.0248240561507641E-012
  0.86600000000000010          2.7184292886693585E-012
  0.86900000000000022          3.3798640526045716E-012
  0.87200000000000011          3.9641485542169044E-012
  0.87500000000000022          4.4235122726910272E-012
  0.87800000000000011          4.7098523946419597E-012
  0.88100000000000001          4.7775566460800526E-012
  0.88400000000000012          4.5866300888974932E-012
  0.88700000000000001          4.1060081704553400E-012
  0.89000000000000012          3.3168700247211838E-012
  0.89300000000000002          2.2157174295250922E-012
  0.89600000000000013          8.1716669477103305E-013
  0.89900000000000002         -8.4388185498759667E-013
  0.90200000000000014         -2.7108175547870692E-012
  0.90500000000000003         -4.7048611666177916E-012
  0.90800000000000014         -6.7257160245325011E-012
  0.91100000000000003         -8.6533102730333193E-012
  0.91400000000000015         -1.0350858519601763E-011
  0.91700000000000004         -1.1669236751812731E-011
  0.92000000000000015         -1.2452464125805127E-011
  0.92300000000000004         -1.2544379333510695E-011
  0.92600000000000016         -1.1796072227383896E-011
  0.92900000000000005         -1.0074225924793030E-011
  0.93200000000000016         -7.2696953508283549E-012
  0.93500000000000005         -3.3060551374260325E-012
  0.93800000000000017          1.8517808689721104E-012
  0.94100000000000006          8.1896357172175974E-012
  0.94400000000000017          1.5637371760542382E-011
  0.94700000000000006          2.4063033168454665E-011
  0.95000000000000018          3.3268409515631259E-011
  0.95300000000000007          4.2986348723842448E-011
  0.95600000000000018          5.2879326657929799E-011
  0.95900000000000007          6.2540107284019315E-011
  0.96200000000000019          7.1492360057944864E-011
  0.96500000000000008          7.9194555848967890E-011
  0.96800000000000019          8.5041206834218572E-011
  0.97100000000000009          8.8367255202458271E-011
  0.97400000000000020          8.8447790942446647E-011
  0.97700000000000009          8.4499606959310525E-011
  0.98000000000000020          7.5678728031653830E-011
  0.98300000000000010          6.1072284447851173E-011
  0.98600000000000021          3.9687009525160756E-011
  0.98900000000000010          1.0430897078370119E-011
  0.99200000000000021         -2.7905491875414728E-011
  0.99500000000000011         -7.6693526922787701E-011
  0.99800000000000022         -1.3750008929387492E-010
   1.0010000000000001         -2.1214671972190648E-010
   1.0040000000000002         -3.0276867505776349E-010
   1.0070000000000001         -4.1189709434946808E-010
   1.0100000000000000         -5.4254550136898274E-010
   1.0130000000000001         -6.9832056141328278E-010
   1.0160000000000000         -8.8354424819852568E-010
   1.0190000000000001         -1.1033785621921640E-009
   1.0220000000000000         -1.3639911389674136E-009
   1.0250000000000001         -1.6727222933891334E-009
   1.0280000000000000         -2.0382685751105301E-009
   1.0310000000000001         -2.4709094282375902E-009
   1.0340000000000000         -2.9827309526234964E-009
   1.0370000000000001         -3.5879122845218226E-009
   1.0400000000000000         -4.3029748117852127E-009
   1.0430000000000001         -5.1470725467608216E-009
   1.0460000000000000         -6.1424116215905276E-009
   1.0490000000000002         -7.3145435004821815E-009
   1.0520000000000000         -8.6928926606887735E-009
   1.0550000000000002         -1.0311141816965934E-008
   1.0580000000000001         -1.2207614795714128E-008
   1.0610000000000002         -1.4425948985466218E-008
   1.0640000000000001         -1.7015876956364263E-008
   1.0670000000000002         -2.0033375541904484E-008
   1.0700000000000001         -2.3541725724219425E-008
   1.0730000000000002         -2.7612140005434439E-008
   1.0760000000000001         -3.2324667973094104E-008
   1.0790000000000002         -3.7768600008527554E-008
   1.0820000000000001         -4.4044212298377145E-008
   1.0850000000000002         -5.1262513078171110E-008
   1.0880000000000001         -5.9547603575644995E-008
   1.0910000000000002         -6.9035937681365327E-008
   1.0940000000000001         -7.9879295405502738E-008
   1.0970000000000002         -9.2243846771263004E-008
