 -0.39999999999999997          0.0000000000000000     
 -0.39699999999999996          0.0000000000000000     
 -0.39399999999999996          0.0000000000000000     
 -0.39099999999999996          0.0000000000000000     
 -0.38799999999999996          0.0000000000000000     
 -0.38499999999999995          0.0000000000000000     
 -0.38199999999999995          0.0000000000000000     
 -0.37899999999999995          0.0000000000000000     
 -0.37599999999999995          0.0000000000000000     
 -0.37299999999999994          0.0000000000000000     
 -0.37000000000000000          0.0000000000000000     
 -0.36699999999999999          0.0000000000000000     
 -0.36399999999999999          0.0000000000000000     
 -0.36099999999999999          0.0000000000000000     
 -0.35799999999999998          0.0000000000000000     
 -0.35499999999999998          0.0000000000000000     
 -0.35199999999999998          0.0000000000000000     
 -0.34899999999999998          0.0000000000000000     
 -0.34599999999999997          0.0000000000000000     
 -0.34299999999999997          0.0000000000000000     
 -0.33999999999999997          0.0000000000000000     
 -0.33699999999999997          0.0000000000000000     
 -0.33399999999999996          0.0000000000000000     
 -0.33099999999999996          0.0000000000000000     
 -0.32799999999999996          0.0000000000000000     
 -0.32499999999999996          0.0000000000000000     
 -0.32199999999999995          0.0000000000000000     
 -0.31899999999999995          0.0000000000000000     
 -0.31599999999999995          0.0000000000000000     
 -0.31299999999999994          0.0000000000000000     
 -0.30999999999999994          0.0000000000000000     
 -0.30699999999999994          0.0000000000000000     
 -0.30399999999999994          0.0000000000000000     
 -0.30099999999999993          0.0000000000000000     
 -0.29799999999999993          0.0000000000000000     
 -0.29499999999999998          0.0000000000000000     
 -0.29199999999999998          0.0000000000000000     
 -0.28899999999999998          0.0000000000000000     
 -0.28599999999999998          0.0000000000000000     
 -0.28299999999999997          0.0000000000000000     
 -0.27999999999999997          0.0000000000000000     
 -0.27699999999999997          0.0000000000000000     
 -0.27399999999999997          0.0000000000000000     
 -0.27099999999999996          0.0000000000000000     
 -0.26799999999999996          0.0000000000000000     
 -0.26499999999999996          0.0000000000000000     
 -0.26199999999999996          0.0000000000000000     
 -0.25899999999999995          0.0000000000000000     
 -0.25599999999999995          0.0000000000000000     
 -0.25300000000000000          0.0000000000000000     
 -0.24999999999999997          0.0000000000000000     
 -0.24699999999999997          0.0000000000000000     
 -0.24399999999999997          0.0000000000000000     
 -0.24099999999999996          0.0000000000000000     
 -0.23799999999999996          0.0000000000000000     
 -0.23499999999999996          0.0000000000000000     
 -0.23199999999999996          0.0000000000000000     
 -0.22899999999999995          0.0000000000000000     
 -0.22599999999999995          0.0000000000000000     
 -0.22299999999999998          0.0000000000000000     
 -0.21999999999999997          0.0000000000000000     
 -0.21699999999999997          0.0000000000000000     
 -0.21399999999999997          0.0000000000000000     
 -0.21099999999999997          0.0000000000000000     
 -0.20799999999999996          0.0000000000000000     
 -0.20499999999999996          0.0000000000000000     
 -0.20199999999999996          0.0000000000000000     
 -0.19899999999999995          0.0000000000000000     
 -0.19599999999999995          0.0000000000000000     
 -0.19299999999999995          0.0000000000000000     
 -0.18999999999999997          0.0000000000000000     
 -0.18699999999999997          0.0000000000000000     
 -0.18399999999999997          0.0000000000000000     
 -0.18099999999999997          0.0000000000000000     
 -0.17799999999999996          0.0000000000000000     
 -0.17499999999999996          0.0000000000000000     
 -0.17199999999999996          0.0000000000000000     
 -0.16899999999999996          0.0000000000000000     
 -0.16599999999999995          0.0000000000000000     
 -0.16299999999999995          0.0000000000000000     
 -0.15999999999999998          0.0000000000000000     
 -0.15699999999999997          0.0000000000000000     
 -0.15399999999999997          0.0000000000000000     
 -0.15099999999999997          0.0000000000000000     
 -0.14799999999999996          0.0000000000000000     
 -0.14499999999999996          0.0000000000000000     
 -0.14199999999999996          0.0000000000000000     
 -0.13899999999999996          0.0000000000000000     
 -0.13599999999999995          0.0000000000000000     
 -0.13299999999999995          0.0000000000000000     
 -0.12999999999999995          0.0000000000000000     
 -0.12699999999999995          0.0000000000000000     
 -0.12399999999999994          0.0000000000000000     
 -0.12099999999999994          0.0000000000000000     
 -0.11799999999999994          0.0000000000000000     
 -0.11499999999999994          0.0000000000000000     
 -0.11199999999999993          0.0000000000000000     
 -0.10899999999999999          0.0000000000000000     
 -0.10599999999999998          0.0000000000000000     
 -0.10299999999999998          0.0000000000000000     
  -9.9999999999999978E-002     0.0000000000000000     
  -9.6999999999999975E-002     0.0000000000000000     
  -9.3999999999999972E-002     0.0000000000000000     
  -9.0999999999999970E-002     0.0000000000000000     
  -8.7999999999999967E-002     0.0000000000000000     
  -8.4999999999999964E-002     0.0000000000000000     
  -8.1999999999999962E-002     0.0000000000000000     
  -7.8999999999999959E-002     0.0000000000000000     
  -7.5999999999999956E-002     0.0000000000000000     
  -7.2999999999999954E-002     0.0000000000000000     
  -6.9999999999999951E-002     0.0000000000000000     
  -6.6999999999999948E-002     0.0000000000000000     
  -6.3999999999999946E-002     0.0000000000000000     
  -6.0999999999999943E-002     0.0000000000000000     
  -5.7999999999999940E-002     0.0000000000000000     
  -5.4999999999999938E-002     0.0000000000000000     
  -5.1999999999999935E-002     0.0000000000000000     
  -4.8999999999999932E-002     0.0000000000000000     
  -4.5999999999999985E-002     0.0000000000000000     
  -4.2999999999999983E-002     0.0000000000000000     
  -3.9999999999999980E-002     0.0000000000000000     
  -3.6999999999999977E-002     0.0000000000000000     
  -3.3999999999999975E-002     0.0000000000000000     
  -3.0999999999999972E-002     0.0000000000000000     
  -2.7999999999999969E-002     0.0000000000000000     
  -2.4999999999999967E-002     0.0000000000000000     
  -2.1999999999999964E-002     0.0000000000000000     
  -1.8999999999999961E-002     0.0000000000000000     
  -1.5999999999999959E-002     0.0000000000000000     
  -1.2999999999999956E-002     0.0000000000000000     
  -9.9999999999999534E-003     0.0000000000000000     
  -6.9999999999999507E-003     0.0000000000000000     
  -3.9999999999999480E-003     0.0000000000000000     
  -9.9999999999994538E-004     0.0000000000000000     
   2.0000000000000573E-003     0.0000000000000000     
   5.0000000000000600E-003     0.0000000000000000     
   8.0000000000000626E-003     0.0000000000000000     
   1.1000000000000065E-002     0.0000000000000000     
   1.4000000000000068E-002     0.0000000000000000     
   1.7000000000000015E-002     0.0000000000000000     
   2.0000000000000018E-002     0.0000000000000000     
   2.3000000000000020E-002     0.0000000000000000     
   2.6000000000000023E-002     0.0000000000000000     
   2.9000000000000026E-002     0.0000000000000000     
   3.2000000000000028E-002     0.0000000000000000     
   3.5000000000000031E-002     0.0000000000000000     
   3.8000000000000034E-002     0.0000000000000000     
   4.1000000000000036E-002     0.0000000000000000     
   4.4000000000000039E-002     0.0000000000000000     
   4.7000000000000042E-002     0.0000000000000000     
   5.0000000000000044E-002     0.0000000000000000     
   5.3000000000000047E-002     0.0000000000000000     
   5.6000000000000050E-002     0.0000000000000000     
   5.9000000000000052E-002     0.0000000000000000     
   6.2000000000000055E-002     0.0000000000000000     
   6.5000000000000058E-002     0.0000000000000000     
   6.8000000000000060E-002     0.0000000000000000     
   7.1000000000000063E-002     0.0000000000000000     
   7.4000000000000066E-002     0.0000000000000000     
   7.7000000000000068E-002     0.0000000000000000     
   8.0000000000000016E-002     0.0000000000000000     
   8.3000000000000018E-002     0.0000000000000000     
   8.6000000000000021E-002     0.0000000000000000     
   8.9000000000000024E-002     0.0000000000000000     
   9.2000000000000026E-002     0.0000000000000000     
   9.5000000000000029E-002     0.0000000000000000     
   9.8000000000000032E-002     0.0000000000000000     
  0.10100000000000003          0.0000000000000000     
  0.10400000000000004          0.0000000000000000     
  0.10700000000000004          0.0000000000000000     
  0.11000000000000004          0.0000000000000000     
  0.11300000000000004          0.0000000000000000     
  0.11600000000000005          0.0000000000000000     
  0.11900000000000005          0.0000000000000000     
  0.12200000000000005          0.0000000000000000     
  0.12500000000000006          0.0000000000000000     
  0.12800000000000006          0.0000000000000000     
  0.13100000000000006          0.0000000000000000     
  0.13400000000000006          0.0000000000000000     
  0.13700000000000007          0.0000000000000000     
  0.14000000000000007          0.0000000000000000     
  0.14300000000000007          0.0000000000000000     
  0.14600000000000007          0.0000000000000000     
  0.14900000000000008          0.0000000000000000     
  0.15200000000000008          0.0000000000000000     
  0.15500000000000008          0.0000000000000000     
  0.15800000000000008          0.0000000000000000     
  0.16100000000000009          0.0000000000000000     
  0.16400000000000009          0.0000000000000000     
  0.16700000000000009          0.0000000000000000     
  0.17000000000000010          0.0000000000000000     
  0.17300000000000010          0.0000000000000000     
  0.17600000000000010          0.0000000000000000     
  0.17899999999999999          0.0000000000000000     
  0.18200000000000000          0.0000000000000000     
  0.18500000000000000          0.0000000000000000     
  0.18800000000000000          0.0000000000000000     
  0.19100000000000000          0.0000000000000000     
  0.19400000000000001          0.0000000000000000     
  0.19700000000000001          0.0000000000000000     
  0.20000000000000001          0.0000000000000000     
  0.20300000000000001          0.0000000000000000     
  0.20600000000000002          0.0000000000000000     
  0.20900000000000002          0.0000000000000000     
  0.21200000000000002          0.0000000000000000     
  0.21500000000000002          0.0000000000000000     
  0.21800000000000003          0.0000000000000000     
  0.22100000000000003          0.0000000000000000     
  0.22400000000000003          0.0000000000000000     
  0.22700000000000004          0.0000000000000000     
  0.23000000000000004          0.0000000000000000     
  0.23300000000000004          0.0000000000000000     
  0.23600000000000004          0.0000000000000000     
  0.23900000000000005          0.0000000000000000     
  0.24200000000000005          0.0000000000000000     
  0.24500000000000005          0.0000000000000000     
  0.24800000000000005          0.0000000000000000     
  0.25100000000000006          0.0000000000000000     
  0.25400000000000006          0.0000000000000000     
  0.25700000000000006          0.0000000000000000     
  0.26000000000000006          0.0000000000000000     
  0.26300000000000007          0.0000000000000000     
  0.26600000000000007          0.0000000000000000     
  0.26900000000000007          0.0000000000000000     
  0.27200000000000008          0.0000000000000000     
  0.27500000000000008          0.0000000000000000     
  0.27800000000000008          0.0000000000000000     
  0.28100000000000008          0.0000000000000000     
  0.28400000000000009          0.0000000000000000     
  0.28700000000000009          0.0000000000000000     
  0.29000000000000009          0.0000000000000000     
  0.29300000000000009          0.0000000000000000     
  0.29600000000000010          0.0000000000000000     
  0.29900000000000010          0.0000000000000000     
  0.30200000000000010          0.0000000000000000     
  0.30499999999999999          0.0000000000000000     
  0.30800000000000000          0.0000000000000000     
  0.31100000000000000          0.0000000000000000     
  0.31400000000000000          0.0000000000000000     
  0.31700000000000000          0.0000000000000000     
  0.32000000000000001          0.0000000000000000     
  0.32300000000000001          0.0000000000000000     
  0.32600000000000001          0.0000000000000000     
  0.32900000000000001          0.0000000000000000     
  0.33200000000000002          0.0000000000000000     
  0.33500000000000002          0.0000000000000000     
  0.33800000000000002          0.0000000000000000     
  0.34100000000000003          0.0000000000000000     
  0.34400000000000003          0.0000000000000000     
  0.34700000000000003          0.0000000000000000     
  0.35000000000000003         -3.3084152320466738E-042
  0.35300000000000004          3.9092187699544144E-042
  0.35600000000000004          8.1985886964988710E-042
  0.35900000000000004         -8.0215945212967411E-042
  0.36200000000000004         -1.9170634149521480E-041
  0.36500000000000005          3.9246364921505586E-041
  0.36800000000000005          5.0184780908391931E-040
  0.37100000000000005          6.0239380953436913E-040
  0.37400000000000005          4.6327298461002900E-040
  0.37700000000000006         -9.6496974860262461E-042
  0.38000000000000006         -7.4347744626849039E-040
  0.38300000000000006         -1.8790120709860568E-039
  0.38600000000000007         -2.8539985977440146E-039
  0.38900000000000007         -3.0119994535720758E-039
  0.39200000000000007         -5.5795458531470137E-040
  0.39500000000000007          3.3003057379079244E-039
  0.39800000000000008          8.5135829878657900E-039
  0.40100000000000008          1.3590588894645650E-038
  0.40400000000000008          1.5957706958922668E-038
  0.40700000000000008          1.0520496304062097E-038
  0.41000000000000009         -1.8918744743929702E-039
  0.41300000000000009         -2.2232304310544340E-038
  0.41600000000000009         -4.8120944714180617E-038
  0.41900000000000009         -7.0771881351077890E-038
  0.42200000000000010         -6.7839860298677926E-038
  0.42500000000000010         -3.2555454791157175E-038
  0.42800000000000010          4.0003793105783776E-038
  0.43100000000000011          1.4495363224381782E-037
  0.43400000000000000          2.5970263712758297E-037
  0.43700000000000000          3.3870274132909199E-037
  0.44000000000000000          3.4345504616932676E-037
  0.44300000000000000          2.0501840730502714E-037
  0.44600000000000001         -1.0385986334003514E-037
  0.44900000000000001         -5.6971880311572822E-037
  0.45200000000000001         -1.1092760058740163E-036
  0.45500000000000002         -1.5607015404503967E-036
  0.45800000000000002         -1.6980467615259872E-036
  0.46100000000000002         -1.2780197351295231E-036
  0.46400000000000002         -1.2017129973668973E-037
  0.46700000000000003          1.7903371651946129E-036
  0.47000000000000003          4.2021450409557800E-036
  0.47300000000000003          6.5363575127909951E-036
  0.47600000000000003          7.9078321745073513E-036
  0.47900000000000004          7.2660991707214114E-036
  0.48200000000000004          3.6718295642041834E-036
  0.48500000000000004         -3.3145936963518924E-036
  0.48800000000000004         -1.3205875639304175E-035
  0.49100000000000005         -2.4247266834841567E-035
  0.49400000000000005         -3.3322774079584840E-035
  0.49700000000000005         -3.6267798193142354E-035
  0.50000000000000000         -2.8694630040760853E-035
  0.50300000000000011         -7.3232885663635545E-036
  0.50600000000000001          2.8358342806929512E-035
  0.50900000000000012          7.4476328460246505E-035
  0.51200000000000001          1.2173269756991054E-034
  0.51500000000000012          1.5556770522987655E-034
  0.51800000000000002          1.5806845793150021E-034
  0.52100000000000013          1.1188631320707406E-034
  0.52400000000000002          5.9326557562863839E-036
  0.52700000000000014         -1.5803968911452810E-034
  0.53000000000000003         -3.5954831572619257E-034
  0.53300000000000014         -5.5630492156176478E-034
  0.53600000000000003         -6.8622099654014463E-034
  0.53900000000000015         -6.7629929656153429E-034
  0.54200000000000004         -4.5901978789300845E-034
  0.54500000000000015          5.0910479231274596E-036
  0.54800000000000004          7.0241804628659471E-034
  0.55100000000000016          1.5448604390493503E-033
  0.55400000000000005          2.3598912207552301E-033
  0.55700000000000016          2.9001237180131609E-033
  0.56000000000000005          2.8785030800371645E-033
  0.56299999999999994          2.0307618297354644E-033
  0.56600000000000006          1.9987434366382649E-034
  0.56899999999999995         -2.5710783441915527E-033
  0.57200000000000006         -5.9594749983089293E-033
  0.57499999999999996         -9.3247752839945568E-033
  0.57800000000000007         -1.1739262196839745E-032
  0.58099999999999996         -1.2109794747626332E-032
  0.58400000000000007         -9.3968439646840703E-033
  0.58699999999999997         -2.9145677718265211E-033
  0.59000000000000008          7.3330137227735465E-033
  0.59299999999999997          2.0352144560719098E-032
  0.59600000000000009          3.3989073445198811E-032
  0.59899999999999998          4.4986966132539546E-032
  0.60200000000000009          4.9349377141855139E-032
  0.60500000000000020          4.3043669033194103E-032
  0.60800000000000010          2.3006094088131094E-032
  0.61100000000000021         -1.1682453427889147E-032
  0.61400000000000010         -5.8672340819791817E-032
  0.61700000000000021         -1.1157271728946931E-031
  0.62000000000000011         -1.5985945610914043E-031
  0.62300000000000022         -1.8975469182732962E-031
  0.62600000000000011         -1.8624728241631421E-031
  0.62900000000000000         -1.3621150653070242E-031
  0.63200000000000012         -3.2306233020033215E-032
  0.63500000000000001          1.2297228679351374E-031
  0.63800000000000012          3.1397854991136613E-031
  0.64100000000000001          5.1040764453125960E-031
  0.64400000000000013          6.6861164265414066E-031
  0.64700000000000002          7.3651000979330248E-031
  0.65000000000000013          6.6229413397147521E-031
  0.65300000000000002          4.0636099202531085E-031
  0.65600000000000014         -4.5046453975987239E-032
  0.65900000000000003         -6.6693319408604528E-031
  0.66200000000000014         -1.3865357369729461E-030
  0.66500000000000004         -2.0815861309840673E-030
  0.66800000000000015         -2.5888780070463358E-030
  0.67100000000000004         -2.7248974604926716E-030
  0.67400000000000015         -2.3183410255538005E-030
  0.67700000000000005         -1.2516351151559689E-030
  0.68000000000000016          4.9425153198507064E-031
  0.68300000000000005          2.8001932607969121E-030
  0.68600000000000017          5.3846247036456872E-030
  0.68900000000000006          7.8049369896377185E-030
  0.69200000000000017          9.4931169998528218E-030
  0.69500000000000006          9.8296554173342223E-030
  0.69800000000000018          8.2535610034732703E-030
  0.70100000000000007          4.3978404263241234E-030
  0.70400000000000018         -1.7687107285726514E-030
  0.70700000000000007         -9.8197507801218052E-030
  0.71000000000000019         -1.8800977799817020E-029
  0.71300000000000008         -2.7241770450503378E-029
  0.71600000000000019         -3.3272896009264723E-029
  0.71900000000000008         -3.4861657493000421E-029
  0.72200000000000020         -3.0155568145176171E-029
  0.72500000000000009         -1.7902651547970143E-029
  0.72800000000000020          2.1090275659213209E-030
  0.73100000000000009          2.8670073325840105E-029
  0.73400000000000021          5.8918713349809889E-029
  0.73700000000000010          8.8348707024938803E-029
  0.74000000000000021          1.1112916289250377E-028
  0.74300000000000010          1.2077152500962925E-028
  0.74600000000000022          1.1112659256579001E-028
  0.74900000000000011          7.7625493420809144E-029
  0.75200000000000022          1.8613706702316479E-029
  0.75500000000000012         -6.3439041103889977E-029
  0.75800000000000001         -1.6110504469904909E-028
  0.76100000000000012         -2.6180350667144966E-028
  0.76400000000000001         -3.4846530397727300E-028
  0.76700000000000013         -4.0118823737958087E-028
  0.77000000000000002         -3.9988135076462048E-028
  0.77300000000000013         -3.2772138449970202E-028
  0.77600000000000002         -1.7505481106953625E-028
  0.77900000000000014          5.6794926946258646E-029
  0.78200000000000003          3.5250100651900676E-028
  0.78500000000000014          6.8120047644447649E-028
  0.78800000000000003          9.9715236789369571E-028
  0.79100000000000015          1.2430680677955988E-027
  0.79400000000000004          1.3563159275269547E-027
  0.79700000000000015          1.2777428086404523E-027
  0.80000000000000004          9.6242253741975301E-028
  0.80300000000000016          3.9107048734698166E-028
  0.80600000000000005         -4.1950032439598602E-028
  0.80900000000000016         -1.4088478767405524E-027
  0.81200000000000006         -2.4702338450595185E-027
  0.81500000000000017         -3.4545989302748565E-027
  0.81800000000000006         -4.1822574108007426E-027
  0.82100000000000017         -4.4625838385906308E-027
  0.82400000000000007         -4.1207158806006381E-027
  0.82700000000000018         -3.0290527261736213E-027
  0.83000000000000007         -1.1399658850934735E-027
  0.83300000000000018          1.4849120384453746E-027
  0.83600000000000008          4.6541123856705784E-027
  0.83900000000000019          8.0397592265394796E-027
  0.84200000000000008          1.1189694765875027E-026
  0.84500000000000020          1.3561207186067123E-026
  0.84800000000000009          1.4577086035438460E-026
  0.85100000000000020          1.3701348665218516E-026
  0.85400000000000009          1.0528948769364288E-026
  0.85700000000000021          4.8800514890152895E-027
  0.86000000000000010         -3.1136059635858162E-027
  0.86300000000000021         -1.2944252923695836E-026
  0.86600000000000010         -2.3700558796752559E-026
  0.86900000000000022         -3.4089670892704942E-026
  0.87200000000000011         -4.2519009488957565E-026
  0.87500000000000022         -4.7241031620909355E-026
  0.87800000000000011         -4.6556867199308908E-026
  0.88100000000000001         -3.9065990342822229E-026
  0.88400000000000012         -2.3939411101679613E-026
  0.88700000000000001         -1.1844505461614348E-027
  0.89000000000000012          2.8135403324239149E-026
  0.89300000000000002          6.1767979385741727E-026
  0.89600000000000013          9.6265563525541510E-026
  0.89900000000000002          1.2713762751758015E-025
  0.90200000000000014          1.4918174392901839E-025
  0.90500000000000003          1.5699355839764827E-025
  0.90800000000000014          1.4563538825686474E-025
  0.91100000000000003          1.1141417960469758E-025
  0.91400000000000015          5.2694349881980843E-026
  0.91700000000000004         -2.9349232130787962E-026
  0.92000000000000015         -1.3015196665416630E-025
  0.92300000000000004         -2.4147248263678461E-025
  0.92600000000000016         -3.5150640704125412E-025
  0.92900000000000005         -4.4548854150134382E-025
  0.93200000000000016         -5.0682517209975209E-025
  0.93500000000000005         -5.1875566763860637E-025
  0.93800000000000017         -4.6644652464514275E-025
  0.94100000000000006         -3.3938463606421363E-025
  0.94400000000000017         -1.3382868874170650E-025
  0.94700000000000006          1.4496705609620067E-025
  0.95000000000000018          4.8109355495397443E-025
  0.95300000000000007          8.4723586978474727E-025
  0.95600000000000018          1.2051494205550415E-024
  0.95900000000000007          1.5076044832623742E-024
  0.96200000000000019          1.7019483762334463E-024
  0.96500000000000008          1.7352077351319267E-024
  0.96800000000000019          1.5605326562608409E-024
  0.97100000000000009          1.1445081609363422E-024
  0.97400000000000020          4.7467563144362553E-025
  0.97700000000000009         -4.3361553567825096E-025
  0.98000000000000020         -1.5319758058427747E-024
  0.98300000000000010         -2.7364109728844265E-024
  0.98600000000000021         -3.9284042753322403E-024
  0.98900000000000010         -4.9603507620064213E-024
  0.99200000000000021         -5.6658334471470939E-024
  0.99500000000000011         -5.8746847887417962E-024
  0.99800000000000022         -5.4321924356833085E-024
   1.0010000000000001         -4.2213193858845013E-024
   1.0040000000000002         -2.1859115358840678E-024
   1.0070000000000001          6.4734916627922325E-025
   1.0100000000000000          4.1513076177300520E-024
   1.0130000000000001          8.0879127664452705E-024
   1.0160000000000000          1.2108127268618368E-023
   1.0190000000000001          1.5764487283787854E-023
   1.0220000000000000          1.8538067165794868E-023
   1.0250000000000001          1.9880269918333819E-023
   1.0280000000000000          1.9268104167828731E-023
   1.0310000000000001          1.6270135750300967E-023
   1.0340000000000000          1.0618313886793847E-023
   1.0370000000000001          2.2784584493038936E-024
   1.0400000000000000         -8.4876755836435294E-024
   1.0430000000000001         -2.1078883717370947E-023
   1.0460000000000000         -3.4537909253649891E-023
   1.0490000000000002         -4.7570707597091386E-023
   1.0520000000000000         -5.8607165365694310E-023
   1.0550000000000002         -6.5907202351798113E-023
   1.0580000000000001         -6.7711278481420384E-023
   1.0610000000000002         -6.2429156547384687E-023
   1.0640000000000001         -4.8855094971099290E-023
   1.0670000000000002         -2.6394223369569802E-023
   1.0700000000000001          4.7239774434560840E-024
   1.0730000000000002          4.3269952199851528E-023
   1.0760000000000001          8.6903580952543529E-023
   1.0790000000000002          1.3215597163879342E-022
   1.0820000000000001          1.7452896977001440E-022
   1.0850000000000002          2.0872677337229538E-022
   1.0880000000000001          2.2902818334148134E-022
   1.0910000000000002          2.2979098961814215E-022
   1.0940000000000001          2.0607125876690154E-022
   1.0970000000000002          1.5431098007829588E-022
