 -0.39999999999999997          0.0000000000000000     
 -0.39699999999999996          0.0000000000000000     
 -0.39399999999999996          0.0000000000000000     
 -0.39099999999999996          0.0000000000000000     
 -0.38799999999999996          0.0000000000000000     
 -0.38499999999999995          0.0000000000000000     
 -0.38199999999999995          0.0000000000000000     
 -0.37899999999999995          0.0000000000000000     
 -0.37599999999999995          0.0000000000000000     
 -0.37299999999999994          0.0000000000000000     
 -0.37000000000000000          0.0000000000000000     
 -0.36699999999999999          0.0000000000000000     
 -0.36399999999999999          0.0000000000000000     
 -0.36099999999999999          0.0000000000000000     
 -0.35799999999999998          0.0000000000000000     
 -0.35499999999999998          0.0000000000000000     
 -0.35199999999999998          0.0000000000000000     
 -0.34899999999999998          0.0000000000000000     
 -0.34599999999999997          0.0000000000000000     
 -0.34299999999999997          0.0000000000000000     
 -0.33999999999999997          0.0000000000000000     
 -0.33699999999999997          0.0000000000000000     
 -0.33399999999999996          0.0000000000000000     
 -0.33099999999999996          0.0000000000000000     
 -0.32799999999999996          0.0000000000000000     
 -0.32499999999999996          0.0000000000000000     
 -0.32199999999999995          0.0000000000000000     
 -0.31899999999999995          0.0000000000000000     
 -0.31599999999999995          0.0000000000000000     
 -0.31299999999999994          0.0000000000000000     
 -0.30999999999999994          0.0000000000000000     
 -0.30699999999999994          0.0000000000000000     
 -0.30399999999999994          0.0000000000000000     
 -0.30099999999999993          0.0000000000000000     
 -0.29799999999999993          0.0000000000000000     
 -0.29499999999999998          0.0000000000000000     
 -0.29199999999999998          0.0000000000000000     
 -0.28899999999999998          0.0000000000000000     
 -0.28599999999999998          0.0000000000000000     
 -0.28299999999999997          0.0000000000000000     
 -0.27999999999999997          0.0000000000000000     
 -0.27699999999999997          0.0000000000000000     
 -0.27399999999999997          0.0000000000000000     
 -0.27099999999999996          0.0000000000000000     
 -0.26799999999999996          0.0000000000000000     
 -0.26499999999999996          0.0000000000000000     
 -0.26199999999999996          0.0000000000000000     
 -0.25899999999999995          0.0000000000000000     
 -0.25599999999999995          0.0000000000000000     
 -0.25300000000000000          0.0000000000000000     
 -0.24999999999999997          0.0000000000000000     
 -0.24699999999999997          0.0000000000000000     
 -0.24399999999999997          0.0000000000000000     
 -0.24099999999999996          0.0000000000000000     
 -0.23799999999999996          0.0000000000000000     
 -0.23499999999999996          0.0000000000000000     
 -0.23199999999999996          0.0000000000000000     
 -0.22899999999999995          0.0000000000000000     
 -0.22599999999999995          0.0000000000000000     
 -0.22299999999999998          0.0000000000000000     
 -0.21999999999999997          0.0000000000000000     
 -0.21699999999999997          0.0000000000000000     
 -0.21399999999999997          0.0000000000000000     
 -0.21099999999999997          0.0000000000000000     
 -0.20799999999999996          0.0000000000000000     
 -0.20499999999999996          0.0000000000000000     
 -0.20199999999999996          0.0000000000000000     
 -0.19899999999999995          0.0000000000000000     
 -0.19599999999999995          0.0000000000000000     
 -0.19299999999999995          0.0000000000000000     
 -0.18999999999999997          0.0000000000000000     
 -0.18699999999999997          0.0000000000000000     
 -0.18399999999999997          0.0000000000000000     
 -0.18099999999999997          0.0000000000000000     
 -0.17799999999999996          0.0000000000000000     
 -0.17499999999999996          0.0000000000000000     
 -0.17199999999999996          0.0000000000000000     
 -0.16899999999999996          0.0000000000000000     
 -0.16599999999999995          0.0000000000000000     
 -0.16299999999999995          0.0000000000000000     
 -0.15999999999999998          0.0000000000000000     
 -0.15699999999999997          0.0000000000000000     
 -0.15399999999999997          0.0000000000000000     
 -0.15099999999999997          0.0000000000000000     
 -0.14799999999999996          0.0000000000000000     
 -0.14499999999999996          0.0000000000000000     
 -0.14199999999999996          0.0000000000000000     
 -0.13899999999999996          0.0000000000000000     
 -0.13599999999999995          0.0000000000000000     
 -0.13299999999999995          0.0000000000000000     
 -0.12999999999999995          0.0000000000000000     
 -0.12699999999999995          0.0000000000000000     
 -0.12399999999999994          0.0000000000000000     
 -0.12099999999999994          0.0000000000000000     
 -0.11799999999999994          0.0000000000000000     
 -0.11499999999999994          0.0000000000000000     
 -0.11199999999999993          0.0000000000000000     
 -0.10899999999999999          0.0000000000000000     
 -0.10599999999999998          0.0000000000000000     
 -0.10299999999999998          0.0000000000000000     
  -9.9999999999999978E-002     0.0000000000000000     
  -9.6999999999999975E-002     0.0000000000000000     
  -9.3999999999999972E-002     0.0000000000000000     
  -9.0999999999999970E-002     0.0000000000000000     
  -8.7999999999999967E-002     0.0000000000000000     
  -8.4999999999999964E-002     0.0000000000000000     
  -8.1999999999999962E-002     0.0000000000000000     
  -7.8999999999999959E-002     0.0000000000000000     
  -7.5999999999999956E-002     0.0000000000000000     
  -7.2999999999999954E-002     0.0000000000000000     
  -6.9999999999999951E-002     0.0000000000000000     
  -6.6999999999999948E-002     0.0000000000000000     
  -6.3999999999999946E-002     0.0000000000000000     
  -6.0999999999999943E-002     0.0000000000000000     
  -5.7999999999999940E-002     0.0000000000000000     
  -5.4999999999999938E-002     0.0000000000000000     
  -5.1999999999999935E-002     0.0000000000000000     
  -4.8999999999999932E-002     0.0000000000000000     
  -4.5999999999999985E-002     0.0000000000000000     
  -4.2999999999999983E-002     0.0000000000000000     
  -3.9999999999999980E-002     0.0000000000000000     
  -3.6999999999999977E-002     0.0000000000000000     
  -3.3999999999999975E-002     0.0000000000000000     
  -3.0999999999999972E-002     0.0000000000000000     
  -2.7999999999999969E-002     0.0000000000000000     
  -2.4999999999999967E-002     0.0000000000000000     
  -2.1999999999999964E-002     0.0000000000000000     
  -1.8999999999999961E-002     0.0000000000000000     
  -1.5999999999999959E-002     0.0000000000000000     
  -1.2999999999999956E-002     0.0000000000000000     
  -9.9999999999999534E-003     0.0000000000000000     
  -6.9999999999999507E-003     0.0000000000000000     
  -3.9999999999999480E-003     0.0000000000000000     
  -9.9999999999994538E-004     0.0000000000000000     
   2.0000000000000573E-003     0.0000000000000000     
   5.0000000000000600E-003     0.0000000000000000     
   8.0000000000000626E-003     0.0000000000000000     
   1.1000000000000065E-002     0.0000000000000000     
   1.4000000000000068E-002     0.0000000000000000     
   1.7000000000000015E-002     0.0000000000000000     
   2.0000000000000018E-002     0.0000000000000000     
   2.3000000000000020E-002     0.0000000000000000     
   2.6000000000000023E-002     0.0000000000000000     
   2.9000000000000026E-002     0.0000000000000000     
   3.2000000000000028E-002     0.0000000000000000     
   3.5000000000000031E-002     0.0000000000000000     
   3.8000000000000034E-002     0.0000000000000000     
   4.1000000000000036E-002     0.0000000000000000     
   4.4000000000000039E-002     0.0000000000000000     
   4.7000000000000042E-002     0.0000000000000000     
   5.0000000000000044E-002     0.0000000000000000     
   5.3000000000000047E-002     0.0000000000000000     
   5.6000000000000050E-002     0.0000000000000000     
   5.9000000000000052E-002     0.0000000000000000     
   6.2000000000000055E-002     0.0000000000000000     
   6.5000000000000058E-002     0.0000000000000000     
   6.8000000000000060E-002     0.0000000000000000     
   7.1000000000000063E-002     0.0000000000000000     
   7.4000000000000066E-002     0.0000000000000000     
   7.7000000000000068E-002     0.0000000000000000     
   8.0000000000000016E-002     0.0000000000000000     
   8.3000000000000018E-002     0.0000000000000000     
   8.6000000000000021E-002     0.0000000000000000     
   8.9000000000000024E-002     0.0000000000000000     
   9.2000000000000026E-002     0.0000000000000000     
   9.5000000000000029E-002     0.0000000000000000     
   9.8000000000000032E-002     0.0000000000000000     
  0.10100000000000003          0.0000000000000000     
  0.10400000000000004          0.0000000000000000     
  0.10700000000000004          0.0000000000000000     
  0.11000000000000004          0.0000000000000000     
  0.11300000000000004          0.0000000000000000     
  0.11600000000000005          0.0000000000000000     
  0.11900000000000005          0.0000000000000000     
  0.12200000000000005          0.0000000000000000     
  0.12500000000000006          0.0000000000000000     
  0.12800000000000006          0.0000000000000000     
  0.13100000000000006          0.0000000000000000     
  0.13400000000000006          0.0000000000000000     
  0.13700000000000007          0.0000000000000000     
  0.14000000000000007          0.0000000000000000     
  0.14300000000000007          0.0000000000000000     
  0.14600000000000007          0.0000000000000000     
  0.14900000000000008          0.0000000000000000     
  0.15200000000000008          0.0000000000000000     
  0.15500000000000008          0.0000000000000000     
  0.15800000000000008          0.0000000000000000     
  0.16100000000000009          0.0000000000000000     
  0.16400000000000009          0.0000000000000000     
  0.16700000000000009          1.0512475843045921E-041
  0.17000000000000010          1.0101426434164883E-041
  0.17300000000000010         -1.8842248466685395E-041
  0.17600000000000010          1.5731217664548318E-041
  0.17899999999999999          3.6347871328581670E-041
  0.18200000000000000         -9.4327705102591484E-041
  0.18500000000000000         -1.8921516247888327E-040
  0.18800000000000000         -2.2699657460546064E-040
  0.19100000000000000         -1.6987887355070063E-039
  0.19400000000000001         -1.5691930788675765E-039
  0.19700000000000001          2.3728911816303883E-040
  0.20000000000000001          3.5274617305145503E-039
  0.20300000000000001          6.0553056949095149E-039
  0.20600000000000002          4.6932748728816069E-039
  0.20900000000000002         -6.5791895058773646E-039
  0.21200000000000002         -2.1439943506557345E-038
  0.21500000000000002         -2.6347536398724346E-038
  0.21800000000000003         -1.0984153829462600E-038
  0.22100000000000003          3.9892379256584487E-038
  0.22400000000000003          9.6078651442495123E-038
  0.22700000000000004          1.1292377064073726E-037
  0.23000000000000004          4.6924287291773583E-038
  0.23300000000000004         -1.3614874320784985E-037
  0.23600000000000004         -3.7555546502777119E-037
  0.23900000000000005         -4.9540200649914098E-037
  0.24200000000000005         -2.9938202799686439E-037
  0.24500000000000005          3.8057224275612138E-037
  0.24800000000000005          1.4002815984219487E-036
  0.25100000000000006          2.2104639167926935E-036
  0.25400000000000006          1.9274994479018985E-036
  0.25700000000000006         -2.4601212904839470E-037
  0.26000000000000006         -4.3224651529568841E-036
  0.26300000000000007         -8.8313116621214628E-036
  0.26600000000000007         -1.0655037489560103E-035
  0.26900000000000007         -5.9443112871893972E-036
  0.27200000000000008          7.6803985902411895E-036
  0.27500000000000008          2.8176877284141398E-035
  0.27800000000000008          4.6836919229804480E-035
  0.28100000000000008          4.8824201832021114E-035
  0.28400000000000009          1.8276186239298120E-035
  0.28700000000000009         -5.1906207135550625E-035
  0.29000000000000009         -1.4837324653230511E-034
  0.29300000000000009         -2.2975798248327965E-034
  0.29600000000000010         -2.3098253284068231E-034
  0.29900000000000010         -8.5462190794645749E-035
  0.30200000000000010          2.3526500750620173E-034
  0.30499999999999999          6.7555421474931011E-034
  0.30800000000000000          1.0656244491637345E-033
  0.31100000000000000          1.1358067150481325E-033
  0.31400000000000000          5.9756581782433823E-034
  0.31700000000000000         -7.0804403667814924E-034
  0.32000000000000001         -2.6298931457933192E-033
  0.32300000000000001         -4.5695723313110461E-033
  0.32600000000000001         -5.4883368114736770E-033
  0.32900000000000001         -4.1487279710950764E-033
  0.33200000000000002          3.8097000357635823E-034
  0.33500000000000002          8.0448245855245594E-033
  0.33800000000000002          1.7165147119451342E-032
  0.34100000000000003          2.4195485087546058E-032
  0.34400000000000003          2.4219526377783734E-032
  0.34700000000000003          1.2418305886441359E-032
  0.35000000000000003         -1.3589604834651786E-032
  0.35300000000000004         -5.1085551394005694E-032
  0.35600000000000004         -9.0281859252563444E-032
  0.35900000000000004         -1.1433822756954460E-031
  0.36200000000000004         -1.0251966845592730E-031
  0.36500000000000005         -3.6944175594156974E-032
  0.36800000000000005          8.7914685119442941E-032
  0.37100000000000005          2.5543432380076993E-031
  0.37400000000000005          4.2069769055447433E-031
  0.37700000000000006          5.1257078232350495E-031
  0.38000000000000006          4.4772236771392829E-031
  0.38300000000000006          1.5748779875410200E-031
  0.38600000000000007         -3.7613868865822209E-031
  0.38900000000000007         -1.0845936180428260E-030
  0.39200000000000007         -1.7909413244666874E-030
  0.39500000000000007         -2.2179911020011191E-030
  0.39800000000000008         -2.0389792603946586E-030
  0.40100000000000008         -9.7394553927972442E-031
  0.40400000000000008          1.0803749799149968E-030
  0.40700000000000008          3.9174971472905280E-030
  0.41000000000000009          6.9316887090948849E-030
  0.41300000000000009          9.1256927369952566E-030
  0.41600000000000009          9.2615373648975445E-030
  0.41900000000000009          6.1720541785166505E-030
  0.42200000000000010         -7.9619342905818087E-031
  0.42500000000000010         -1.1296212339038636E-029
  0.42800000000000010         -2.3594241611489863E-029
  0.43100000000000011         -3.4460554911304995E-029
  0.43400000000000000         -3.9504560722124404E-029
  0.43700000000000000         -3.4052202180819036E-029
  0.44000000000000000         -1.4532738055158946E-029
  0.44300000000000000          1.9836443201070814E-029
  0.44600000000000001          6.5465297917661231E-029
  0.44900000000000001          1.1345069792061248E-028
  0.45200000000000001          1.4986209160657097E-028
  0.45500000000000002          1.5770715861612502E-028
  0.45800000000000002          1.2072312219910975E-028
  0.46100000000000002          2.8640084439206143E-029
  0.46400000000000002         -1.1701184805829114E-028
  0.46700000000000003         -2.9804027015483507E-028
  0.47000000000000003         -4.7749924629443416E-028
  0.47300000000000003         -6.0214120135227285E-028
  0.47600000000000003         -6.1060936845152588E-028
  0.47900000000000004         -4.4742732631841726E-028
  0.48200000000000004         -8.1220396178386064E-029
  0.48500000000000004          4.7618329125814265E-028
  0.48800000000000004          1.1546885296031790E-027
  0.49100000000000005          1.8206565587614616E-027
  0.49400000000000005          2.2867199471793697E-027
  0.49700000000000005          2.3400300347649431E-027
  0.50000000000000000          1.7885611793329862E-027
  0.50300000000000011          5.2035839362076468E-028
  0.50600000000000001         -1.4348585086649409E-027
  0.50900000000000012         -3.8567169837185715E-027
  0.51200000000000001         -6.3151270346122090E-027
  0.51500000000000012         -8.1972449727989787E-027
  0.51800000000000002         -8.7906620026066040E-027
  0.52100000000000013         -7.4228351704601124E-027
  0.52400000000000002         -3.6428164504118931E-027
  0.52700000000000014          2.5838527283172315E-027
  0.53000000000000003          1.0709661646609514E-026
  0.53300000000000014          1.9519168699944452E-026
  0.53600000000000003          2.7171057347346174E-026
  0.53900000000000015          3.1402951486214271E-026
  0.54200000000000004          2.9907509870704737E-026
  0.54500000000000015          2.0851501569941355E-026
  0.54800000000000004          3.4672687017392709E-027
  0.55100000000000016         -2.1393059848964176E-026
  0.55400000000000005         -5.0878717721291347E-026
  0.55700000000000016         -8.0078143585226977E-026
  0.56000000000000005         -1.0239261688792704E-025
  0.56299999999999994         -1.1040463719994251E-025
  0.56600000000000006         -9.7212667733574659E-026
  0.56899999999999995         -5.8093726395101278E-026
  0.57200000000000006          7.7560989929108827E-027
  0.57499999999999996          9.5746422801762225E-026
  0.57800000000000007          1.9507453658779344E-025
  0.58099999999999996          2.8893599462209655E-025
  0.58400000000000007          3.5603631924671648E-025
  0.58699999999999997          3.7349039820964226E-025
  0.59000000000000008          3.2094121061581606E-025
  0.59299999999999997          1.8544074895172393E-025
  0.59600000000000009         -3.3648779773469892E-026
  0.59899999999999998         -3.2068996232381499E-025
  0.60200000000000009         -6.4177484972186354E-025
  0.60500000000000020         -9.4566573677251593E-025
  0.60800000000000010         -1.1683104201001685E-024
  0.61100000000000021         -1.2411084302017760E-024
  0.61400000000000010         -1.1024293542919036E-024
  0.61700000000000021         -7.1115611384250637E-025
  0.62000000000000011         -6.0325872211980187E-026
  0.62300000000000022          8.1155989785043721E-025
  0.62600000000000011          1.8142562151520582E-024
  0.62900000000000000          2.8069695186689407E-024
  0.63200000000000012          3.6088236558000944E-024
  0.63500000000000001          4.0192319906459740E-024
  0.63800000000000012          3.8472756540461514E-024
  0.64100000000000001          2.9473897608267905E-024
  0.64400000000000013          1.2569801878661014E-024
  0.64700000000000002         -1.1698653030298220E-024
  0.65000000000000013         -4.1391671392473311E-024
  0.65300000000000002         -7.3107923014346097E-024
  0.65600000000000014         -1.0214536567427073E-023
  0.65900000000000003         -1.2291481646542859E-023
  0.66200000000000014         -1.2960520630862385E-023
  0.66500000000000004         -1.1705546301531880E-023
  0.66800000000000015         -8.1750740947087611E-024
  0.67100000000000004         -2.2816548229911936E-024
  0.67400000000000015          5.7139481852741484E-024
  0.67700000000000005          1.5150776828390934E-023
  0.68000000000000016          2.4963225215346233E-023
  0.68300000000000005          3.3736475305428810E-023
  0.68600000000000017          3.9828548435049290E-023
  0.68900000000000006          4.1556647598492273E-023
  0.69200000000000017          3.7436769407440740E-023
  0.69500000000000006          2.6454754922190548E-023
  0.69800000000000018          8.3375017255710717E-024
  0.70100000000000007         -1.6213879951782307E-023
  0.70400000000000018         -4.5371866870866910E-023
  0.70700000000000007         -7.6151053452663527E-023
  0.71000000000000019         -1.0453198707873378E-022
  0.71300000000000008         -1.2576172252492351E-022
  0.71600000000000019         -1.3482990750076266E-022
  0.71900000000000008         -1.2710244296591867E-022
  0.72200000000000020         -9.9061084186331752E-023
  0.72500000000000009         -4.9078816771669002E-023
  0.72800000000000020          2.1867141911241295E-023
  0.73100000000000009          1.0965423841839365E-022
  0.73400000000000021          2.0675765074046595E-022
  0.73700000000000010          3.0238443316664072E-022
  0.74000000000000021          3.8307558735000416E-022
  0.74300000000000010          4.3381118951633178E-022
  0.74600000000000022          4.3960297185837617E-022
  0.74900000000000011          3.8747995289744393E-022
  0.75200000000000022          2.6871776821333727E-022
  0.75500000000000012          8.1075287775636464E-023
  0.75800000000000001         -1.6924123776117570E-022
  0.76100000000000012         -4.6620324515964654E-022
  0.76400000000000001         -7.8350075069193929E-022
  0.76700000000000013         -1.0852735352229719E-021
  0.77000000000000002         -1.3282432835736188E-021
  0.77300000000000013         -1.4653111163845782E-021
  0.77600000000000002         -1.4505494046205288E-021
  0.77900000000000014         -1.2452798319661917E-021
  0.78200000000000003         -8.2478131090724549E-022
  0.78500000000000014         -1.8493517382563780E-022
  0.78800000000000003          6.5202340424603661E-022
  0.79100000000000015          1.6335649929780281E-021
  0.79400000000000004          2.6756483358648665E-021
  0.79700000000000015          3.6650320237133248E-021
  0.80000000000000004          4.4657336689089405E-021
  0.80300000000000016          4.9297681968312221E-021
  0.80600000000000005          4.9120242636338096E-021
  0.80900000000000016          4.2884137801154436E-021
  0.81200000000000006          2.9759785257322633E-021
  0.81500000000000017          9.5303906754668638E-022
  0.81800000000000006         -1.7229231898102298E-021
  0.82100000000000017         -4.9023915755907150E-021
  0.82400000000000007         -8.3384435984072644E-021
  0.82700000000000018         -1.1691470296567604E-020
  0.83000000000000007         -1.4545677892717382E-020
  0.83300000000000018         -1.6438391781644040E-020
  0.83600000000000008         -1.6901745548943522E-020
  0.83900000000000019         -1.5515021120679645E-020
  0.84200000000000008         -1.1964097484423311E-020
  0.84500000000000020         -6.1033329665195820E-021
  0.84800000000000009          1.9867948588298753E-021
  0.85100000000000020          1.1953604688673655E-020
  0.85400000000000009          2.3145263385131147E-020
  0.85700000000000021          3.4610730045803888E-020
  0.86000000000000010          4.5132439015414237E-020
  0.86300000000000021          5.3296166630595096E-020
  0.86600000000000010          5.7599039068020748E-020
  0.86900000000000022          5.6592222054571406E-020
  0.87200000000000011          4.9051705982573093E-020
  0.87500000000000022          3.4165815913431926E-020
  0.87800000000000011          1.1721046398551530E-020
  0.88100000000000001         -1.7730975038817563E-020
  0.88400000000000012         -5.2749341458953064E-020
  0.88700000000000001         -9.0944756020377775E-020
  0.89000000000000012         -1.2900725939215947E-019
  0.89300000000000002         -1.6283580880747794E-019
  0.89600000000000013         -1.8778236554361828E-019
  0.89900000000000002         -1.9900792265746448E-019
  0.90200000000000014         -1.9194329078248145E-019
  0.90500000000000003         -1.6282636129087088E-019
  0.90800000000000014         -1.0928181079637840E-019
  0.91100000000000003         -3.0893924726967734E-020
  0.91400000000000015          7.0292460198197541E-020
  0.91700000000000004          1.8940028318460239E-019
  0.92000000000000015          3.1855274693686893E-019
  0.92300000000000004          4.4697285757718931E-019
  0.92600000000000016          5.6138784691935323E-019
  0.92900000000000005          6.4678511560236430E-019
  0.93200000000000016          6.8750475241882857E-019
  0.93500000000000005          6.6865364770211922E-019
  0.93800000000000017          5.7775767375840113E-019
  0.94100000000000006          4.0654944357741716E-019
  0.94400000000000017          1.5275965917361796E-019
  0.94700000000000006         -1.7828177782698590E-019
  0.95000000000000018         -5.7241975431918036E-019
  0.95300000000000007         -1.0060226499295952E-018
  0.95600000000000018         -1.4460955468811210E-018
  0.95900000000000007         -1.8513252873666705E-018
  0.96200000000000019         -2.1741374516141864E-018
  0.96500000000000008         -2.3638276986827932E-018
  0.96800000000000019         -2.3706623526247867E-018
  0.97100000000000009         -2.1508220728709616E-018
  0.97400000000000020         -1.6718787470033346E-018
  0.97700000000000009         -9.1840953274971441E-019
  0.98000000000000020          1.0272262578678838E-019
  0.98300000000000010          1.3579850094176118E-018
  0.98600000000000021          2.7842894294543621E-018
  0.98900000000000010          4.2882370335154694E-018
  0.99200000000000021          5.7479130459607588E-018
  0.99500000000000011          7.0177010874530771E-018
  0.99800000000000022          7.9362970320136702E-018
   1.0010000000000001          8.3379558924158798E-018
   1.0040000000000002          8.0664582431408114E-018
   1.0070000000000001          6.9913686247087514E-018
   1.0100000000000000          5.0254361563354531E-018
   1.0130000000000001          2.1419877201721986E-018
   1.0160000000000000         -1.6094098848498741E-018
   1.0190000000000001         -6.0905552274776834E-018
   1.0220000000000000         -1.1067424265678584E-017
   1.0250000000000001         -1.6209812665201648E-017
   1.0280000000000000         -2.1099261261909197E-017
   1.0310000000000001         -2.5246547798582447E-017
   1.0340000000000000         -2.8118673346246425E-017
   1.0370000000000001         -2.9175867783989142E-017
   1.0400000000000000         -2.7916456024459012E-017
   1.0430000000000001         -2.3928499118758109E-017
   1.0460000000000000         -1.6944360366453203E-017
   1.0490000000000002         -6.8945610141528573E-018
   1.0520000000000000          6.0435217733947179E-018
   1.0550000000000002          2.1407874676875054E-017
   1.0580000000000001          3.8430329726917153E-017
   1.0610000000000002          5.6034739788584087E-017
   1.0640000000000001          7.2862297176453921E-017
   1.0670000000000002          8.7324476684060213E-017
   1.0700000000000001          9.7686203238131722E-017
   1.0730000000000002          1.0217761021944147E-016
   1.0760000000000001          9.9133503927766840E-017
   1.0790000000000002          8.7151784363412652E-017
   1.0820000000000001          6.5262347618265406E-017
   1.0850000000000002          3.3097625377833910E-017
   1.0880000000000001         -8.9516131808616644E-018
   1.0910000000000002         -5.9609264402253671E-017
   1.0940000000000001         -1.1663290008801129E-016
   1.0970000000000002         -1.7679062342059631E-016
