 -0.39999999999999997          0.0000000000000000     
 -0.39699999999999996          0.0000000000000000     
 -0.39399999999999996          0.0000000000000000     
 -0.39099999999999996          0.0000000000000000     
 -0.38799999999999996          0.0000000000000000     
 -0.38499999999999995          0.0000000000000000     
 -0.38199999999999995          0.0000000000000000     
 -0.37899999999999995          0.0000000000000000     
 -0.37599999999999995          0.0000000000000000     
 -0.37299999999999994          0.0000000000000000     
 -0.37000000000000000          0.0000000000000000     
 -0.36699999999999999          0.0000000000000000     
 -0.36399999999999999          0.0000000000000000     
 -0.36099999999999999          0.0000000000000000     
 -0.35799999999999998          0.0000000000000000     
 -0.35499999999999998          0.0000000000000000     
 -0.35199999999999998          0.0000000000000000     
 -0.34899999999999998          0.0000000000000000     
 -0.34599999999999997          0.0000000000000000     
 -0.34299999999999997          0.0000000000000000     
 -0.33999999999999997          0.0000000000000000     
 -0.33699999999999997          0.0000000000000000     
 -0.33399999999999996          0.0000000000000000     
 -0.33099999999999996          0.0000000000000000     
 -0.32799999999999996          0.0000000000000000     
 -0.32499999999999996          0.0000000000000000     
 -0.32199999999999995          0.0000000000000000     
 -0.31899999999999995          0.0000000000000000     
 -0.31599999999999995          0.0000000000000000     
 -0.31299999999999994          0.0000000000000000     
 -0.30999999999999994          0.0000000000000000     
 -0.30699999999999994          0.0000000000000000     
 -0.30399999999999994          0.0000000000000000     
 -0.30099999999999993          0.0000000000000000     
 -0.29799999999999993          0.0000000000000000     
 -0.29499999999999998          0.0000000000000000     
 -0.29199999999999998          0.0000000000000000     
 -0.28899999999999998          0.0000000000000000     
 -0.28599999999999998          0.0000000000000000     
 -0.28299999999999997          0.0000000000000000     
 -0.27999999999999997          0.0000000000000000     
 -0.27699999999999997          0.0000000000000000     
 -0.27399999999999997          0.0000000000000000     
 -0.27099999999999996          0.0000000000000000     
 -0.26799999999999996          0.0000000000000000     
 -0.26499999999999996          0.0000000000000000     
 -0.26199999999999996          0.0000000000000000     
 -0.25899999999999995          0.0000000000000000     
 -0.25599999999999995          0.0000000000000000     
 -0.25300000000000000          0.0000000000000000     
 -0.24999999999999997          0.0000000000000000     
 -0.24699999999999997          0.0000000000000000     
 -0.24399999999999997          0.0000000000000000     
 -0.24099999999999996          0.0000000000000000     
 -0.23799999999999996          0.0000000000000000     
 -0.23499999999999996          0.0000000000000000     
 -0.23199999999999996          0.0000000000000000     
 -0.22899999999999995          0.0000000000000000     
 -0.22599999999999995          0.0000000000000000     
 -0.22299999999999998          0.0000000000000000     
 -0.21999999999999997          0.0000000000000000     
 -0.21699999999999997          0.0000000000000000     
 -0.21399999999999997          0.0000000000000000     
 -0.21099999999999997          0.0000000000000000     
 -0.20799999999999996          0.0000000000000000     
 -0.20499999999999996          0.0000000000000000     
 -0.20199999999999996          0.0000000000000000     
 -0.19899999999999995          0.0000000000000000     
 -0.19599999999999995          0.0000000000000000     
 -0.19299999999999995          0.0000000000000000     
 -0.18999999999999997          0.0000000000000000     
 -0.18699999999999997          0.0000000000000000     
 -0.18399999999999997          0.0000000000000000     
 -0.18099999999999997          0.0000000000000000     
 -0.17799999999999996          0.0000000000000000     
 -0.17499999999999996          0.0000000000000000     
 -0.17199999999999996          0.0000000000000000     
 -0.16899999999999996          0.0000000000000000     
 -0.16599999999999995          0.0000000000000000     
 -0.16299999999999995          0.0000000000000000     
 -0.15999999999999998          0.0000000000000000     
 -0.15699999999999997          0.0000000000000000     
 -0.15399999999999997          0.0000000000000000     
 -0.15099999999999997          0.0000000000000000     
 -0.14799999999999996          0.0000000000000000     
 -0.14499999999999996          0.0000000000000000     
 -0.14199999999999996          0.0000000000000000     
 -0.13899999999999996          0.0000000000000000     
 -0.13599999999999995          0.0000000000000000     
 -0.13299999999999995          0.0000000000000000     
 -0.12999999999999995          0.0000000000000000     
 -0.12699999999999995          0.0000000000000000     
 -0.12399999999999994          0.0000000000000000     
 -0.12099999999999994          0.0000000000000000     
 -0.11799999999999994          0.0000000000000000     
 -0.11499999999999994          0.0000000000000000     
 -0.11199999999999993          0.0000000000000000     
 -0.10899999999999999          0.0000000000000000     
 -0.10599999999999998          0.0000000000000000     
 -0.10299999999999998          0.0000000000000000     
  -9.9999999999999978E-002     0.0000000000000000     
  -9.6999999999999975E-002     0.0000000000000000     
  -9.3999999999999972E-002     0.0000000000000000     
  -9.0999999999999970E-002     0.0000000000000000     
  -8.7999999999999967E-002     0.0000000000000000     
  -8.4999999999999964E-002     0.0000000000000000     
  -8.1999999999999962E-002     0.0000000000000000     
  -7.8999999999999959E-002     0.0000000000000000     
  -7.5999999999999956E-002     0.0000000000000000     
  -7.2999999999999954E-002     0.0000000000000000     
  -6.9999999999999951E-002     0.0000000000000000     
  -6.6999999999999948E-002     0.0000000000000000     
  -6.3999999999999946E-002     0.0000000000000000     
  -6.0999999999999943E-002     0.0000000000000000     
  -5.7999999999999940E-002     0.0000000000000000     
  -5.4999999999999938E-002     0.0000000000000000     
  -5.1999999999999935E-002     0.0000000000000000     
  -4.8999999999999932E-002     0.0000000000000000     
  -4.5999999999999985E-002     0.0000000000000000     
  -4.2999999999999983E-002     0.0000000000000000     
  -3.9999999999999980E-002     0.0000000000000000     
  -3.6999999999999977E-002     0.0000000000000000     
  -3.3999999999999975E-002     0.0000000000000000     
  -3.0999999999999972E-002     0.0000000000000000     
  -2.7999999999999969E-002     0.0000000000000000     
  -2.4999999999999967E-002     0.0000000000000000     
  -2.1999999999999964E-002     0.0000000000000000     
  -1.8999999999999961E-002     0.0000000000000000     
  -1.5999999999999959E-002     0.0000000000000000     
  -1.2999999999999956E-002     0.0000000000000000     
  -9.9999999999999534E-003     0.0000000000000000     
  -6.9999999999999507E-003     0.0000000000000000     
  -3.9999999999999480E-003     0.0000000000000000     
  -9.9999999999994538E-004     0.0000000000000000     
   2.0000000000000573E-003     0.0000000000000000     
   5.0000000000000600E-003     0.0000000000000000     
   8.0000000000000626E-003     0.0000000000000000     
   1.1000000000000065E-002     0.0000000000000000     
   1.4000000000000068E-002     0.0000000000000000     
   1.7000000000000015E-002     0.0000000000000000     
   2.0000000000000018E-002     0.0000000000000000     
   2.3000000000000020E-002     0.0000000000000000     
   2.6000000000000023E-002     0.0000000000000000     
   2.9000000000000026E-002     0.0000000000000000     
   3.2000000000000028E-002     0.0000000000000000     
   3.5000000000000031E-002     0.0000000000000000     
   3.8000000000000034E-002     0.0000000000000000     
   4.1000000000000036E-002     0.0000000000000000     
   4.4000000000000039E-002     0.0000000000000000     
   4.7000000000000042E-002     0.0000000000000000     
   5.0000000000000044E-002     0.0000000000000000     
   5.3000000000000047E-002     0.0000000000000000     
   5.6000000000000050E-002     0.0000000000000000     
   5.9000000000000052E-002     0.0000000000000000     
   6.2000000000000055E-002     0.0000000000000000     
   6.5000000000000058E-002     0.0000000000000000     
   6.8000000000000060E-002     0.0000000000000000     
   7.1000000000000063E-002     0.0000000000000000     
   7.4000000000000066E-002     0.0000000000000000     
   7.7000000000000068E-002     0.0000000000000000     
   8.0000000000000016E-002     0.0000000000000000     
   8.3000000000000018E-002     0.0000000000000000     
   8.6000000000000021E-002     0.0000000000000000     
   8.9000000000000024E-002     0.0000000000000000     
   9.2000000000000026E-002     0.0000000000000000     
   9.5000000000000029E-002     0.0000000000000000     
   9.8000000000000032E-002     0.0000000000000000     
  0.10100000000000003          0.0000000000000000     
  0.10400000000000004          0.0000000000000000     
  0.10700000000000004          0.0000000000000000     
  0.11000000000000004          0.0000000000000000     
  0.11300000000000004          0.0000000000000000     
  0.11600000000000005          0.0000000000000000     
  0.11900000000000005          0.0000000000000000     
  0.12200000000000005          0.0000000000000000     
  0.12500000000000006          0.0000000000000000     
  0.12800000000000006          0.0000000000000000     
  0.13100000000000006          0.0000000000000000     
  0.13400000000000006          0.0000000000000000     
  0.13700000000000007          0.0000000000000000     
  0.14000000000000007          0.0000000000000000     
  0.14300000000000007          0.0000000000000000     
  0.14600000000000007          0.0000000000000000     
  0.14900000000000008          0.0000000000000000     
  0.15200000000000008          0.0000000000000000     
  0.15500000000000008          0.0000000000000000     
  0.15800000000000008          0.0000000000000000     
  0.16100000000000009          0.0000000000000000     
  0.16400000000000009          0.0000000000000000     
  0.16700000000000009          0.0000000000000000     
  0.17000000000000010          0.0000000000000000     
  0.17300000000000010          0.0000000000000000     
  0.17600000000000010          0.0000000000000000     
  0.17899999999999999          0.0000000000000000     
  0.18200000000000000          0.0000000000000000     
  0.18500000000000000          0.0000000000000000     
  0.18800000000000000          0.0000000000000000     
  0.19100000000000000          0.0000000000000000     
  0.19400000000000001          0.0000000000000000     
  0.19700000000000001          0.0000000000000000     
  0.20000000000000001          0.0000000000000000     
  0.20300000000000001          0.0000000000000000     
  0.20600000000000002          0.0000000000000000     
  0.20900000000000002          0.0000000000000000     
  0.21200000000000002          0.0000000000000000     
  0.21500000000000002          0.0000000000000000     
  0.21800000000000003          0.0000000000000000     
  0.22100000000000003          0.0000000000000000     
  0.22400000000000003          0.0000000000000000     
  0.22700000000000004          0.0000000000000000     
  0.23000000000000004          0.0000000000000000     
  0.23300000000000004          0.0000000000000000     
  0.23600000000000004          0.0000000000000000     
  0.23900000000000005          0.0000000000000000     
  0.24200000000000005          0.0000000000000000     
  0.24500000000000005          0.0000000000000000     
  0.24800000000000005          0.0000000000000000     
  0.25100000000000006          0.0000000000000000     
  0.25400000000000006          0.0000000000000000     
  0.25700000000000006          0.0000000000000000     
  0.26000000000000006          0.0000000000000000     
  0.26300000000000007          0.0000000000000000     
  0.26600000000000007          0.0000000000000000     
  0.26900000000000007          0.0000000000000000     
  0.27200000000000008          0.0000000000000000     
  0.27500000000000008          0.0000000000000000     
  0.27800000000000008          0.0000000000000000     
  0.28100000000000008          0.0000000000000000     
  0.28400000000000009          0.0000000000000000     
  0.28700000000000009          0.0000000000000000     
  0.29000000000000009          0.0000000000000000     
  0.29300000000000009          0.0000000000000000     
  0.29600000000000010          0.0000000000000000     
  0.29900000000000010          0.0000000000000000     
  0.30200000000000010          0.0000000000000000     
  0.30499999999999999          0.0000000000000000     
  0.30800000000000000          0.0000000000000000     
  0.31100000000000000          0.0000000000000000     
  0.31400000000000000          0.0000000000000000     
  0.31700000000000000          0.0000000000000000     
  0.32000000000000001          0.0000000000000000     
  0.32300000000000001          0.0000000000000000     
  0.32600000000000001          0.0000000000000000     
  0.32900000000000001          0.0000000000000000     
  0.33200000000000002          0.0000000000000000     
  0.33500000000000002          0.0000000000000000     
  0.33800000000000002          0.0000000000000000     
  0.34100000000000003          0.0000000000000000     
  0.34400000000000003          0.0000000000000000     
  0.34700000000000003          0.0000000000000000     
  0.35000000000000003          6.8362389567706030E-042
  0.35300000000000004         -8.0776905052910417E-042
  0.35600000000000004         -1.6940894164476047E-041
  0.35900000000000004          1.6575167140032589E-041
  0.36200000000000004          3.9612632003591908E-041
  0.36500000000000005         -8.1095487075781194E-041
  0.36800000000000005         -1.0369773211274562E-039
  0.37100000000000005         -1.2447373614201574E-039
  0.37400000000000005         -9.5627209329468303E-040
  0.37700000000000006          1.9146396512159734E-041
  0.38000000000000006          1.5334393993822027E-039
  0.38300000000000006          3.8839232911349119E-039
  0.38600000000000007          5.9025631977646031E-039
  0.38900000000000007          6.2157562059265660E-039
  0.39200000000000007          9.4663130332120151E-040
  0.39500000000000007         -7.1310077766991608E-039
  0.39800000000000008         -1.7988278121179593E-038
  0.40100000000000008         -2.8543768398578708E-038
  0.40400000000000008         -3.3197754046776308E-038
  0.40700000000000008         -2.0131397230263913E-038
  0.41000000000000009          8.4881080746807014E-039
  0.41300000000000009          5.3024004695477329E-038
  0.41600000000000009          1.0501968349505217E-037
  0.41900000000000009          1.4796288445186587E-037
  0.42200000000000010          1.7082429002472511E-037
  0.42500000000000010          1.3247255915432427E-037
  0.42800000000000010          1.2829333238490975E-038
  0.43100000000000011         -1.9271086884551640E-037
  0.43400000000000000         -4.5515713291709973E-037
  0.43700000000000000         -7.0946023255582020E-037
  0.44000000000000000         -8.3393323635231210E-037
  0.44300000000000000         -7.1336471761093721E-037
  0.44600000000000001         -2.3274930623605073E-037
  0.44900000000000001          6.4619358391183469E-037
  0.45200000000000001          1.8324146230111967E-036
  0.45500000000000002          3.0626241846102812E-036
  0.45800000000000002          3.8985031114019400E-036
  0.46100000000000002          3.7869392070592597E-036
  0.46400000000000002          2.1969596809691813E-036
  0.46700000000000003         -1.1736395815802149E-036
  0.47000000000000003         -6.1577078774557413E-036
  0.47300000000000003         -1.1911185396318127E-035
  0.47600000000000003         -1.6830068514493096E-035
  0.47900000000000004         -1.8687797163205323E-035
  0.48200000000000004         -1.5064224986775008E-035
  0.48500000000000004         -4.0744597294193175E-036
  0.48800000000000004          1.4691430632368094E-035
  0.49100000000000005          3.9224622864788311E-035
  0.49400000000000005          6.4462804427192592E-035
  0.49700000000000005          8.2335771676597872E-035
  0.50000000000000000          8.2826353390987995E-035
  0.50300000000000011          5.6221491545238828E-035
  0.50600000000000001         -3.5695490671538625E-036
  0.50900000000000012         -9.5157916406840530E-035
  0.51200000000000001         -2.0623289577012666E-034
  0.51500000000000012         -3.1182788615588427E-034
  0.51800000000000002         -3.7568277941590216E-034
  0.52100000000000013         -3.5580139365289638E-034
  0.52400000000000002         -2.1454105499061758E-034
  0.52700000000000014          6.7658001511315461E-035
  0.53000000000000003          4.7730207136186318E-034
  0.53300000000000014          9.5554429725641002E-034
  0.53600000000000003          1.3934958825276691E-033
  0.53900000000000015          1.6401242203699715E-033
  0.54200000000000004          1.5263142420338113E-033
  0.54500000000000015          9.0561529549787087E-034
  0.54800000000000004         -2.9239092219546620E-034
  0.55100000000000016         -2.0056465840396364E-033
  0.55400000000000005         -3.9947405343450557E-033
  0.55700000000000016         -5.8275333786534556E-033
  0.56000000000000005         -6.9108963065528200E-033
  0.56299999999999994         -6.5818063601407578E-033
  0.56600000000000006         -4.2589762234287366E-033
  0.56899999999999995          3.5980853098744378E-034
  0.57200000000000006          7.0882996709352895E-033
  0.57499999999999996          1.5081944229226486E-032
  0.57800000000000007          2.2769860413148504E-032
  0.58099999999999996          2.7951038060534737E-032
  0.58400000000000007          2.8099047822234725E-032
  0.58699999999999997          2.0884227416947916E-032
  0.59000000000000008          4.8684072219009097E-033
  0.59299999999999997         -1.9734805016037340E-032
  0.59600000000000009         -5.0402809716276314E-032
  0.59899999999999998         -8.1960072918479631E-032
  0.60200000000000009         -1.0676289188631501E-031
  0.60500000000000020         -1.1558283290037576E-031
  0.60800000000000010         -9.9251958859331859E-032
  0.61100000000000021         -5.0966360663047327E-032
  0.61400000000000010          3.1052421518288190E-032
  0.61700000000000021          1.4105048439593112E-031
  0.62000000000000011          2.6405663982252763E-031
  0.62300000000000022          3.7575039642204851E-031
  0.62600000000000011          4.4451967260394697E-031
  0.62900000000000000          4.3606661794535387E-031
  0.63200000000000012          3.2045605410385742E-031
  0.63500000000000001          8.0883436103778861E-032
  0.63800000000000012         -2.7722540062497793E-031
  0.64100000000000001         -7.1876721970774865E-031
  0.64400000000000013         -1.1754932527704718E-030
  0.64700000000000002         -1.5488078158698789E-030
  0.65000000000000013         -1.7204979878627146E-030
  0.65300000000000002         -1.5719204033869921E-030
  0.65600000000000014         -1.0104243664197473E-030
  0.65900000000000003          2.3178476705665554E-034
  0.66200000000000014          1.4107395285319053E-030
  0.66500000000000004          3.0652233543963792E-030
  0.66800000000000015          4.6958127691834870E-030
  0.67100000000000004          5.9395069838157709E-030
  0.67400000000000015          6.3815095191945774E-030
  0.67700000000000005          5.6250707421666994E-030
  0.68000000000000016          3.3821968576949688E-030
  0.68300000000000005         -4.2666455356551800E-031
  0.68600000000000017         -5.5817701550350773E-030
  0.68900000000000006         -1.1503843601064275E-029
  0.69200000000000017         -1.7247344386203206E-029
  0.69500000000000006         -2.1566394942537617E-029
  0.69800000000000018         -2.3064422157547103E-029
  0.70100000000000007         -2.0424907741985902E-029
  0.70400000000000018         -1.2703295885775184E-029
  0.70700000000000007          3.5747400257986593E-031
  0.71000000000000019          1.8043218832127260E-029
  0.71300000000000008          3.8482261669782248E-029
  0.71600000000000019          5.8624448104142610E-029
  0.71900000000000008          7.4442141545503603E-029
  0.72200000000000020          8.1384628586082728E-029
  0.72500000000000009          7.5078585069938716E-029
  0.72800000000000020          5.2218627828370074E-029
  0.73100000000000009          1.1539160154101454E-029
  0.73400000000000021         -4.5291018464077630E-029
  0.73700000000000010         -1.1303886587191524E-028
  0.74000000000000021         -1.8274160299422150E-028
  0.74300000000000010         -2.4217387653964051E-028
  0.74600000000000022         -2.7705605331827744E-028
  0.74900000000000011         -2.7300086223044588E-028
  0.75200000000000022         -2.1807542018861437E-028
  0.75500000000000012         -1.0569391769924846E-028
  0.75800000000000001          6.2565350901756865E-029
  0.76100000000000012          2.7474283113641044E-028
  0.76400000000000001          5.0743780976326026E-028
  0.76700000000000013          7.2642396256644861E-028
  0.77000000000000002          8.8931105223658899E-028
  0.77300000000000013          9.5038373750727092E-028
  0.77600000000000002          8.6741031236346383E-028
  0.77900000000000014          6.0982707488959588E-028
  0.78200000000000003          1.6730687120534227E-028
  0.78500000000000014         -4.4257634811649825E-028
  0.78800000000000003         -1.1691443537736630E-027
  0.79100000000000015         -1.9273600383769476E-027
  0.79400000000000004         -2.6018346608363500E-027
  0.79700000000000015         -3.0568488875557977E-027
  0.80000000000000004         -3.1524679264809395E-027
  0.80300000000000016         -2.7657464209730213E-027
  0.80600000000000005         -1.8151396320647687E-027
  0.80900000000000016         -2.8505782931415195E-028
  0.81200000000000006          1.7531349657855659E-027
  0.81500000000000017          4.1279467614181240E-027
  0.81800000000000006          6.5664253111886594E-027
  0.82100000000000017          8.7079679940924790E-027
  0.82400000000000007          1.0135260896385542E-026
  0.82700000000000018          1.0422024128322393E-026
  0.83000000000000007          9.1948872808126122E-027
  0.83300000000000018          6.2038554128441431E-027
  0.83600000000000008          1.3932792918873569E-027
  0.83900000000000019         -5.0369925283687381E-027
  0.84200000000000008         -1.2591634985657050E-026
  0.84500000000000020         -2.0472285772254475E-026
  0.84800000000000009         -2.7611682702258599E-026
  0.85100000000000020         -3.2755317620213936E-026
  0.85400000000000009         -3.4591275059390263E-026
  0.85700000000000021         -3.1922041042218950E-026
  0.86000000000000010         -2.3865174600725983E-026
  0.86300000000000021         -1.0062093645403618E-026
  0.86600000000000010          9.1317915988961213E-027
  0.86900000000000022          3.2506388897257213E-026
  0.87200000000000011          5.7937393561830618E-026
  0.87500000000000022          8.2436689133574607E-026
  0.87800000000000011          1.0233323373586119E-025
  0.88100000000000001          1.1359414329841552E-025
  0.88400000000000012          1.1227670855093325E-025
  0.88700000000000001          9.5085523911056733E-026
  0.89000000000000012          5.9987725603212578E-026
  0.89300000000000002          6.8181621897803337E-027
  0.89600000000000013         -6.2205817840005710E-026
  0.89900000000000002         -1.4215077011443742E-025
  0.90200000000000014         -2.2530442466135184E-025
  0.90500000000000003         -3.0145887390769751E-025
  0.90800000000000014         -3.5859176047818400E-025
  0.91100000000000003         -3.8395862520407192E-025
  0.91400000000000015         -3.6555640190732309E-025
  0.91700000000000004         -2.9387173159070851E-025
  0.92000000000000015         -1.6375654489043553E-025
  0.92300000000000004          2.3768482338343955E-026
  0.92600000000000016          2.6003387424495800E-025
  0.92900000000000005          5.2782568132604917E-025
  0.93200000000000016          8.0133547588158804E-025
  0.93500000000000005          1.0471841748096625E-024
  0.93800000000000017          1.2266415419612002E-024
  0.94100000000000006          1.2990852955662361E-024
  0.94400000000000017          1.2265776726587859E-024
  0.94700000000000006          9.7927536753726781E-025
  0.95000000000000018          5.4122278735557992E-025
  0.95300000000000007         -8.4102195285626198E-026
  0.95600000000000018         -8.6918047457195819E-025
  0.95900000000000007         -1.7596079733162512E-024
  0.96200000000000019         -2.6738224165321502E-024
  0.96500000000000008         -3.5059923166754579E-024
  0.96800000000000019         -4.1325986519285852E-024
  0.97100000000000009         -4.4227561580632678E-024
  0.97400000000000020         -4.2520624734359835E-024
  0.97700000000000009         -3.5191142469108371E-024
  0.98000000000000020         -2.1634656676141602E-024
  0.98300000000000010         -1.8323682947633968E-025
  0.98600000000000021          2.3497113581320812E-024
  0.98900000000000010          5.2795132650111604E-024
  0.99200000000000021          8.3632557406346561E-024
  0.99500000000000011          1.1277271056059838E-023
  0.99800000000000022          1.3634383726218656E-023
   1.0010000000000001          1.5012803953302421E-023
   1.0040000000000002          1.4996060515278988E-023
   1.0070000000000001          1.3222378098270227E-023
   1.0100000000000000          9.4398698373824660E-024
   1.0130000000000001          3.5630392123502020E-024
   1.0160000000000000         -4.2759243031287135E-024
   1.0190000000000001         -1.3687308524922688E-023
   1.0220000000000000         -2.4003694582827752E-023
   1.0250000000000001         -3.4285727139378921E-023
   1.0280000000000000         -4.3359452435174077E-023
   1.0310000000000001         -4.9889359462715773E-023
   1.0340000000000000         -5.2486871234318488E-023
   1.0370000000000001         -4.9850995696843029E-023
   1.0400000000000000         -4.0934346430193758E-023
   1.0430000000000001         -2.5121162748658515E-023
   1.0460000000000000         -2.4016214043284878E-024
   1.0490000000000002          2.6477265217259245E-023
   1.0520000000000000          5.9906262090672965E-023
   1.0550000000000002          9.5376561657726853E-023
   1.0580000000000001          1.2952976801073442E-022
   1.0610000000000002          1.5831184813099921E-022
   1.0640000000000001          1.7723799364836015E-022
   1.0670000000000002          1.8176759911330804E-022
   1.0700000000000001          1.6777557286300358E-022
   1.0730000000000002          1.3209198675578855E-022
   1.0760000000000001          7.3072331750720997E-023
   1.0790000000000002         -8.8576905513794508E-024
   1.0820000000000001         -1.1074305149297983E-022
   1.0850000000000002         -2.2679518630010298E-022
   1.0880000000000001         -3.4831043289675668E-022
   1.0910000000000002         -4.6386802798091600E-022
   1.0940000000000001         -5.5986538075585344E-022
   1.0970000000000002         -6.2139312487075415E-022
