 -0.39999999999999997          0.0000000000000000     
 -0.39699999999999996          0.0000000000000000     
 -0.39399999999999996          0.0000000000000000     
 -0.39099999999999996          0.0000000000000000     
 -0.38799999999999996          0.0000000000000000     
 -0.38499999999999995          0.0000000000000000     
 -0.38199999999999995          0.0000000000000000     
 -0.37899999999999995          0.0000000000000000     
 -0.37599999999999995          0.0000000000000000     
 -0.37299999999999994          0.0000000000000000     
 -0.37000000000000000          0.0000000000000000     
 -0.36699999999999999          0.0000000000000000     
 -0.36399999999999999          0.0000000000000000     
 -0.36099999999999999          0.0000000000000000     
 -0.35799999999999998          0.0000000000000000     
 -0.35499999999999998          0.0000000000000000     
 -0.35199999999999998          0.0000000000000000     
 -0.34899999999999998          0.0000000000000000     
 -0.34599999999999997          0.0000000000000000     
 -0.34299999999999997          0.0000000000000000     
 -0.33999999999999997          0.0000000000000000     
 -0.33699999999999997          0.0000000000000000     
 -0.33399999999999996          0.0000000000000000     
 -0.33099999999999996          0.0000000000000000     
 -0.32799999999999996          0.0000000000000000     
 -0.32499999999999996          0.0000000000000000     
 -0.32199999999999995          0.0000000000000000     
 -0.31899999999999995          0.0000000000000000     
 -0.31599999999999995          0.0000000000000000     
 -0.31299999999999994          0.0000000000000000     
 -0.30999999999999994          0.0000000000000000     
 -0.30699999999999994          0.0000000000000000     
 -0.30399999999999994          0.0000000000000000     
 -0.30099999999999993          0.0000000000000000     
 -0.29799999999999993          0.0000000000000000     
 -0.29499999999999998          0.0000000000000000     
 -0.29199999999999998          0.0000000000000000     
 -0.28899999999999998          0.0000000000000000     
 -0.28599999999999998          0.0000000000000000     
 -0.28299999999999997          0.0000000000000000     
 -0.27999999999999997          0.0000000000000000     
 -0.27699999999999997          0.0000000000000000     
 -0.27399999999999997          0.0000000000000000     
 -0.27099999999999996          0.0000000000000000     
 -0.26799999999999996          0.0000000000000000     
 -0.26499999999999996          0.0000000000000000     
 -0.26199999999999996          0.0000000000000000     
 -0.25899999999999995          0.0000000000000000     
 -0.25599999999999995          0.0000000000000000     
 -0.25300000000000000          0.0000000000000000     
 -0.24999999999999997          0.0000000000000000     
 -0.24699999999999997          0.0000000000000000     
 -0.24399999999999997          0.0000000000000000     
 -0.24099999999999996          0.0000000000000000     
 -0.23799999999999996          0.0000000000000000     
 -0.23499999999999996          0.0000000000000000     
 -0.23199999999999996          0.0000000000000000     
 -0.22899999999999995          0.0000000000000000     
 -0.22599999999999995          0.0000000000000000     
 -0.22299999999999998          0.0000000000000000     
 -0.21999999999999997          0.0000000000000000     
 -0.21699999999999997          0.0000000000000000     
 -0.21399999999999997          0.0000000000000000     
 -0.21099999999999997          0.0000000000000000     
 -0.20799999999999996          0.0000000000000000     
 -0.20499999999999996          0.0000000000000000     
 -0.20199999999999996          0.0000000000000000     
 -0.19899999999999995          0.0000000000000000     
 -0.19599999999999995          0.0000000000000000     
 -0.19299999999999995          0.0000000000000000     
 -0.18999999999999997          0.0000000000000000     
 -0.18699999999999997          0.0000000000000000     
 -0.18399999999999997          0.0000000000000000     
 -0.18099999999999997          0.0000000000000000     
 -0.17799999999999996          0.0000000000000000     
 -0.17499999999999996          0.0000000000000000     
 -0.17199999999999996          0.0000000000000000     
 -0.16899999999999996          0.0000000000000000     
 -0.16599999999999995          0.0000000000000000     
 -0.16299999999999995          0.0000000000000000     
 -0.15999999999999998          0.0000000000000000     
 -0.15699999999999997          0.0000000000000000     
 -0.15399999999999997          0.0000000000000000     
 -0.15099999999999997          0.0000000000000000     
 -0.14799999999999996          0.0000000000000000     
 -0.14499999999999996          0.0000000000000000     
 -0.14199999999999996          0.0000000000000000     
 -0.13899999999999996          0.0000000000000000     
 -0.13599999999999995          0.0000000000000000     
 -0.13299999999999995          0.0000000000000000     
 -0.12999999999999995          0.0000000000000000     
 -0.12699999999999995          0.0000000000000000     
 -0.12399999999999994          0.0000000000000000     
 -0.12099999999999994          0.0000000000000000     
 -0.11799999999999994          0.0000000000000000     
 -0.11499999999999994         -8.2694979563983161E-043
 -0.11199999999999993         -6.8916239469072906E-043
 -0.10899999999999999          1.8458886115973072E-042
 -0.10599999999999998          1.4816113275054551E-042
 -0.10299999999999998         -8.4293964936361361E-041
  -9.9999999999999978E-002    -1.3213126606793523E-040
  -9.6999999999999975E-002     7.3232235556501782E-042
  -9.3999999999999972E-002     4.2666074741217580E-040
  -9.0999999999999970E-002     4.2756660728866001E-040
  -8.7999999999999967E-002    -8.7832083878336264E-040
  -8.4999999999999964E-002    -2.1516085633392497E-039
  -8.1999999999999962E-002    -6.2264562910826699E-040
  -7.8999999999999959E-002     4.7786383290974121E-039
  -7.5999999999999956E-002     9.0822095776797967E-039
  -7.2999999999999954E-002     1.1256685709806754E-038
  -6.9999999999999951E-002    -1.8471264326673605E-038
  -6.6999999999999948E-002    -5.4298493429152706E-038
  -6.3999999999999946E-002    -3.0211021550033262E-038
  -6.0999999999999943E-002     1.0121883042913529E-037
  -5.7999999999999940E-002     2.3533268988976640E-037
  -5.4999999999999938E-002     8.4673643158752112E-038
  -5.1999999999999935E-002    -5.0136465887754322E-037
  -4.8999999999999932E-002    -9.9648732106380612E-037
  -4.5999999999999985E-002    -2.0784844489995825E-037
  -4.2999999999999983E-002     2.3126337170948717E-036
  -3.9999999999999980E-002     4.1624603272758154E-036
  -3.6999999999999977E-002     4.8911444151527372E-037
  -3.3999999999999975E-002    -1.0070777158834022E-035
  -3.0999999999999972E-002    -1.7281591682363200E-035
  -2.7999999999999969E-002    -1.6386694265203224E-036
  -2.4999999999999967E-002     4.1761693677830189E-035
  -2.1999999999999964E-002     7.1630449319405559E-035
  -1.8999999999999961E-002     9.9416151662280604E-036
  -1.5999999999999959E-002    -1.6518648864026101E-034
  -1.2999999999999956E-002    -2.9544675871890312E-034
  -9.9999999999999534E-003    -7.1564425959879756E-035
  -6.9999999999999507E-003     6.1895881990435257E-034
  -3.9999999999999480E-003     1.2039491585081705E-033
  -9.9999999999994538E-004     4.7515243525134120E-034
   2.0000000000000573E-003    -2.1657879171420528E-033
   5.0000000000000600E-003    -4.7961210486312726E-033
   8.0000000000000626E-003    -2.8045181776210284E-033
   1.1000000000000065E-002     6.8765581348693001E-033
   1.4000000000000068E-002     1.8420800833044064E-032
   1.7000000000000015E-002     1.4861058502769447E-032
   2.0000000000000018E-002    -1.8566776943208314E-032
   2.3000000000000020E-002    -6.7075593095046263E-032
   2.6000000000000023E-002    -7.1427801375516349E-032
   2.9000000000000026E-002     3.4437556814966967E-032
   3.2000000000000028E-002     2.2645120552644829E-031
   3.5000000000000031E-002     3.1258472024123488E-031
   3.8000000000000034E-002     1.9868086655819796E-032
   4.1000000000000036E-002    -6.8434885271271964E-031
   4.4000000000000039E-002    -1.2417986641536898E-030
   4.7000000000000042E-002    -6.1912193297646160E-031
   5.0000000000000044E-002     1.7227882240338922E-030
   5.3000000000000047E-002     4.4279656518809924E-030
   5.6000000000000050E-002     3.9604051259461135E-030
   5.9000000000000052E-002    -2.8503619352150225E-030
   6.2000000000000055E-002    -1.3822214591029888E-029
   6.5000000000000058E-002    -1.8287422141833998E-029
   6.8000000000000060E-002    -2.3073955542163478E-030
   7.1000000000000063E-002     3.5683957233634403E-029
   7.4000000000000066E-002     6.8776839289909440E-029
   7.7000000000000068E-002     4.6394542613179567E-029
   8.0000000000000016E-002    -6.3861942597122181E-029
   8.3000000000000018E-002    -2.1337352443000138E-028
   8.6000000000000021E-002    -2.4903375955598925E-028
   8.9000000000000024E-002    -6.6271296621763900E-031
   9.2000000000000026E-002     5.1868129018249230E-028
   9.5000000000000029E-002     9.3876972865447001E-028
   9.8000000000000032E-002     6.2929847895259180E-028
  0.10100000000000003         -7.8341868241316417E-028
  0.10400000000000004         -2.7022030984661005E-027
  0.10700000000000004         -3.3211593963636187E-027
  0.11000000000000004         -6.0362686010313751E-028
  0.11300000000000004          5.5355746936169938E-027
  0.11600000000000005          1.1275376737857584E-026
  0.11900000000000005          9.6278875104119905E-027
  0.12200000000000005         -4.5349385793064141E-027
  0.12500000000000006         -2.7012745562199924E-026
  0.12800000000000006         -4.0541583677150071E-026
  0.13100000000000006         -2.2145258653581052E-026
  0.13400000000000006          3.6939505391684323E-026
  0.13700000000000007          1.0957311588165068E-025
  0.14000000000000007          1.3082238516814601E-025
  0.14300000000000007          3.4092300230172161E-026
  0.14600000000000007         -1.8140412532146305E-025
  0.14900000000000008         -3.9586993183350260E-025
  0.15200000000000008         -3.9216183011992217E-025
  0.15500000000000008          5.6616626801965967E-027
  0.15800000000000008          7.2668439340587916E-025
  0.16100000000000009          1.3294778567910567E-024
  0.16400000000000009          1.1398143979785488E-024
  0.16700000000000009         -2.8881924474355411E-025
  0.17000000000000010         -2.5871583597626151E-024
  0.17300000000000010         -4.3024689234139351E-024
  0.17600000000000010         -3.4172461730881040E-024
  0.17899999999999999          1.2625723343284330E-024
  0.18200000000000000          8.4680744094971661E-024
  0.18500000000000000          1.3810813772628190E-023
  0.18800000000000000          1.1306910298995199E-023
  0.19100000000000000         -2.7614375855757018E-024
  0.19400000000000001         -2.5271267148474238E-023
  0.19700000000000001         -4.4129162910990934E-023
  0.20000000000000001         -4.1720077066496529E-023
  0.20300000000000001         -4.6900181316452567E-024
  0.20600000000000002          6.3383217155904051E-023
  0.20900000000000002          1.3381368838665894E-022
  0.21200000000000002          1.5734892566795700E-022
  0.21500000000000002          8.5384053065155088E-023
  0.21800000000000003         -9.7065572209594972E-023
  0.22100000000000003         -3.4149543838480837E-022
  0.22400000000000003         -5.2935584581533279E-022
  0.22700000000000004         -5.0478401909325327E-022
  0.23000000000000004         -1.4724338580155091E-022
  0.23300000000000004          5.3766612458835294E-022
  0.23600000000000004          1.3511035922191605E-021
  0.23900000000000005          1.9058832399336774E-021
  0.24200000000000005          1.7357194041934369E-021
  0.24500000000000005          5.0181616751707334E-022
  0.24800000000000005         -1.7627710982220006E-021
  0.25100000000000006         -4.4761457677273146E-021
  0.25400000000000006         -6.5165765472148904E-021
  0.25700000000000006         -6.4982530818452609E-021
  0.26000000000000006         -3.3026972383359967E-021
  0.26300000000000007          3.2691367226558877E-021
  0.26600000000000007          1.1969667799218211E-020
  0.26900000000000007          1.9988999111536703E-020
  0.27200000000000008          2.3468189809169989E-020
  0.27500000000000008          1.8670451310177778E-020
  0.27800000000000008          3.5768886698817409E-021
  0.28100000000000008         -2.0577941931693197E-020
  0.28400000000000009         -4.8450949566040574E-020
  0.28700000000000009         -7.0975210381908839E-020
  0.29000000000000009         -7.7261870803344285E-020
  0.29300000000000009         -5.7838668917092224E-020
  0.29600000000000010         -8.5322198068712307E-021
  0.29900000000000010          6.6116004386785202E-020
  0.30200000000000010          1.5117298776506494E-019
  0.30499999999999999          2.2246282712708498E-019
  0.30800000000000000          2.5104407570900758E-019
  0.31100000000000000          2.1065052316883880E-019
  0.31400000000000000          8.6718517275194484E-020
  0.31700000000000000         -1.1521711676309474E-019
  0.32000000000000001         -3.6440492112746844E-019
  0.32300000000000001         -6.0544900548564824E-019
  0.32600000000000001         -7.6600502143584716E-019
  0.32900000000000001         -7.7143098724008047E-019
  0.33200000000000002         -5.6431728934374586E-019
  0.33500000000000002         -1.2502998530005100E-019
  0.33800000000000002          5.1173994406910177E-019
  0.34100000000000003          1.2495703613582117E-018
  0.34400000000000003          1.9360991928114205E-018
  0.34700000000000003          2.3838077463549889E-018
  0.35000000000000003          2.4045134945824089E-018
  0.35300000000000004          1.8528960766196673E-018
  0.35600000000000004          6.7145241491419859E-019
  0.35900000000000004         -1.0725453756623705E-018
  0.36200000000000004         -3.1677282604633534E-018
  0.36500000000000005         -5.2647109674333561E-018
  0.36800000000000005         -6.9120110152276847E-018
  0.37100000000000005         -7.6210410588742699E-018
  0.37400000000000005         -6.9540609122166936E-018
  0.37700000000000006         -4.6234997352388461E-018
  0.38000000000000006         -5.8700752931156506E-019
  0.38300000000000006          4.8799737921858179E-018
  0.38600000000000007          1.1151588600389450E-017
  0.38900000000000007          1.7273676116193529E-017
  0.39200000000000007          2.2048832424160407E-017
  0.39500000000000007          2.4184580236781797E-017
  0.39800000000000008          2.2494402667679891E-017
  0.40100000000000008          1.6131048785996042E-017
  0.40400000000000008          4.8221579551335801E-018
  0.40700000000000008         -1.0929110975503904E-017
  0.41000000000000009         -2.9718685803579677E-017
  0.41300000000000009         -4.9229405377399134E-017
  0.41600000000000009         -6.6362368794006495E-017
  0.41900000000000009         -7.7526640415653560E-017
  0.42200000000000010         -7.9083269490783998E-017
  0.42500000000000010         -6.7912040784230174E-017
  0.42800000000000010         -4.2047827434195932E-017
  0.43100000000000011         -1.3041133596111311E-018
  0.43400000000000000          5.2212848717555119E-017
  0.43700000000000000          1.1380623849276980E-016
  0.44000000000000000          1.7620467592902165E-016
  0.44300000000000000          2.2997106727290659E-016
  0.44600000000000001          2.6433938803154220E-016
  0.44900000000000001          2.6846404036636420E-016
  0.45200000000000001          2.3299684721957485E-016
  0.45500000000000002          1.5185109005471677E-016
  0.45800000000000002          2.3938311070564093E-017
  0.46100000000000002         -1.4537364036277097E-016
  0.46400000000000002         -3.4334184660962397E-016
  0.46700000000000003         -5.4973133277592335E-016
  0.47000000000000003         -7.3770366855889841E-016
  0.47300000000000003         -8.7581586454830303E-016
  0.47600000000000003         -9.3112455336806589E-016
  0.47900000000000004         -8.7323182988187612E-016
  0.48200000000000004         -6.7897750245954041E-016
  0.48500000000000004         -3.3727522024580531E-016
  0.48800000000000004          1.4643321827651051E-016
  0.49100000000000005          7.4680995927124833E-016
  0.49400000000000005          1.4169569617948195E-015
  0.49700000000000005          2.0890544946194802E-015
  0.50000000000000000          2.6777402635870475E-015
  0.50300000000000011          3.0864102153722721E-015
  0.50600000000000001          3.2163167227381385E-015
  0.50900000000000012          2.9780557747234976E-015
  0.51200000000000001          2.3045339356413562E-015
  0.51500000000000012          1.1643477096628279E-015
  0.51800000000000002         -4.2605174758339204E-016
  0.52100000000000013         -2.3928788767702616E-015
  0.52400000000000002         -4.5999645739064146E-015
  0.52700000000000014         -6.8497431236563468E-015
  0.53000000000000003         -8.8912854672002295E-015
  0.53300000000000014         -1.0436146361582642E-014
  0.53600000000000003         -1.1181963999993090E-014
  0.53900000000000015         -1.0842748846924892E-014
  0.54200000000000004         -9.1842166698954978E-015
  0.54500000000000015         -6.0612632121101568E-015
  0.54800000000000004         -1.4541959413667230E-015
  0.55100000000000016          4.5005792058972524E-015
  0.55400000000000005          1.1489482300628464E-014
  0.55700000000000016          1.9014749899463296E-014
  0.56000000000000005          2.6405137691756390E-014
  0.56299999999999994          3.2846555801517038E-014
  0.56600000000000006          3.7434004121189555E-014
  0.56899999999999995          3.9243728565237395E-014
  0.57200000000000006          3.7422352040924500E-014
  0.57499999999999996          3.1288270642615964E-014
  0.57800000000000007          2.0436425740185056E-014
  0.58099999999999996          4.8390135916554726E-015
  0.58400000000000007         -1.5070235131159025E-014
  0.58699999999999997         -3.8338656071924437E-014
  0.59000000000000008         -6.3474680218437083E-014
  0.59299999999999997         -8.8474913069635876E-014
  0.59600000000000009         -1.1090424321788822E-013
  0.59899999999999998         -1.2803279248557876E-013
  0.60200000000000009         -1.3702727466786885E-013
  0.60500000000000020         -1.3519024511085089E-013
  0.60800000000000010         -1.2023400848670299E-013
  0.61100000000000021         -9.0574711614059682E-014
  0.61400000000000010         -4.5616996139352257E-014
  0.61700000000000021          1.3987339132814444E-014
  0.62000000000000011          8.6142829678561491E-014
  0.62300000000000022          1.6719954629415238E-013
  0.62600000000000011          2.5195616756344640E-013
  0.62900000000000000          3.3379276460756059E-013
  0.63200000000000012          4.0495427004885031E-013
  0.63500000000000001          4.5697869936168505E-013
  0.63800000000000012          4.8126705221236618E-013
  0.64100000000000001          4.6977442223674122E-013
  0.64400000000000013          4.1577856081470134E-013
  0.64700000000000002          3.1469298055274369E-013
  0.65000000000000013          1.6485161400661010E-013
  0.65300000000000002         -3.1794230255729386E-014
  0.65600000000000014         -2.6913210774739112E-013
  0.65900000000000003         -5.3657806622937975E-013
  0.66200000000000014         -8.1905482812358544E-013
  0.66500000000000004         -1.0973148646114355E-012
  0.66800000000000015         -1.3486316143210670E-012
  0.67100000000000004         -1.5478824426103362E-012
  0.67400000000000015         -1.6689994391653710E-012
  0.67700000000000005         -1.6867348438731352E-012
  0.68000000000000016         -1.5786745078895705E-012
  0.68300000000000005         -1.3273953826106848E-012
  0.68600000000000017         -9.2260942594730508E-013
  0.68900000000000006         -3.6315946190911116E-013
  0.69200000000000017          3.4129588993550918E-013
  0.69500000000000006          1.1690953972909963E-012
  0.69800000000000018          2.0860332129058912E-012
  0.70100000000000007          3.0456212122591374E-012
  0.70400000000000018          3.9902242715473893E-012
  0.70700000000000007          4.8531900444336160E-012
  0.71000000000000019          5.5619211396875091E-012
  0.71300000000000008          6.0418556641653510E-012
  0.71600000000000019          6.2212816790264281E-012
  0.71900000000000008          6.0366853716305698E-012
  0.72200000000000020          5.4384995559180137E-012
  0.72500000000000009          4.3968575883804212E-012
  0.72800000000000020          2.9070581645734200E-012
  0.73100000000000009          9.9427194107488444E-013
  0.73400000000000021         -1.2827310912198574E-012
  0.73700000000000010         -3.8294361372236006E-012
  0.74000000000000021         -6.5151644657622231E-012
  0.74300000000000010         -9.1746817829687491E-012
  0.74600000000000022         -1.1612094410803273E-011
  0.74900000000000011         -1.3607014947585971E-011
  0.75200000000000022         -1.4923102832031367E-011
  0.75500000000000012         -1.5318494973086679E-011
  0.75800000000000001         -1.4558309194812064E-011
  0.76100000000000012         -1.2428384418091657E-011
  0.76400000000000001         -8.7500083086826649E-012
  0.76700000000000013         -3.3947266558952626E-012
  0.77000000000000002          3.7009817238521024E-012
  0.77300000000000013          1.2522098476748228E-011
  0.77600000000000002          2.2963339057097337E-011
  0.77900000000000014          3.4819358650953958E-011
  0.78200000000000003          4.7777764685785800E-011
  0.78500000000000014          6.1415200584966491E-011
  0.78800000000000003          7.5196407915508170E-011
  0.79100000000000015          8.8476163331284765E-011
  0.79400000000000004          1.0050340826913529E-010
  0.79700000000000015          1.1042831596719516E-010
  0.80000000000000004          1.1730881795850178E-010
  0.80300000000000016          1.2011851003776369E-010
  0.80600000000000005          1.1775197777317960E-010
  0.80900000000000016          1.0902772219494001E-010
  0.81200000000000006          9.2683849495414239E-011
  0.81500000000000017          6.7371393451920788E-011
  0.81800000000000006          3.1635518788343931E-011
  0.82100000000000017         -1.6113144113322544E-011
  0.82400000000000007         -7.7638839994462884E-011
  0.82700000000000018         -1.5493375589773698E-010
  0.83000000000000007         -2.5029079651712307E-010
  0.83300000000000018         -3.6638804329255507E-010
  0.83600000000000008         -5.0639758637748549E-010
  0.83900000000000019         -6.7410406097482870E-010
  0.84200000000000008         -8.7405247615245559E-010
  0.84500000000000020         -1.1117189359372801E-009
  0.84800000000000009         -1.3936901193792321E-009
  0.85100000000000020         -1.7278763561876939E-009
  0.85400000000000009         -2.1237505687201035E-009
  0.85700000000000021         -2.5926143395989846E-009
  0.86000000000000010         -3.1478382804964510E-009
  0.86300000000000021         -3.8052412084651612E-009
  0.86600000000000010         -4.5833809653413832E-009
  0.86900000000000022         -5.5039574009402402E-009
  0.87200000000000011         -6.5921857624186305E-009
  0.87500000000000022         -7.8773248416631627E-009
  0.87800000000000011         -9.3930324176133244E-009
  0.88100000000000001         -1.1178025239416040E-008
  0.88400000000000012         -1.3276595975034466E-008
  0.88700000000000001         -1.5739298652686877E-008
  0.89000000000000012         -1.8623514573942219E-008
  0.89300000000000002         -2.1994405113163256E-008
  0.89600000000000013         -2.5925533850480937E-008
  0.89900000000000002         -3.0499953341741455E-008
  0.90200000000000014         -3.5810973535137189E-008
  0.90500000000000003         -4.1962951402973236E-008
  0.90800000000000014         -4.9073229752448274E-008
  0.91100000000000003         -5.7272188701477831E-008
  0.91400000000000015         -6.6705305044076374E-008
  0.91700000000000004         -7.7533377369428260E-008
  0.92000000000000015         -8.9935015655631472E-008
  0.92300000000000004         -1.0410714400277386E-007
  0.92600000000000016         -1.2026621224340728E-007
  0.92900000000000005         -1.3864938089546657E-007
  0.93200000000000016         -1.5951632884504386E-007
  0.93500000000000005         -1.8315043301361683E-007
  0.93800000000000017         -2.0985746971888907E-007
  0.94100000000000006         -2.3996982887240313E-007
  0.94400000000000017         -2.7384650312497103E-007
  0.94700000000000006         -3.1186917324314464E-007
  0.95000000000000018         -3.5444709821596101E-007
  0.95300000000000007         -4.0201793592945018E-007
  0.95600000000000018         -4.5504372694721746E-007
  0.95900000000000007         -5.1400866156390048E-007
  0.96200000000000019         -5.7941780772933626E-007
  0.96500000000000008         -6.5180407844246081E-007
  0.96800000000000019         -7.3171534602374519E-007
  0.97100000000000009         -8.1971001247063317E-007
  0.97400000000000020         -9.1636232818125865E-007
  0.97700000000000009         -1.0222540676457659E-006
  0.98000000000000020         -1.1379571482192421E-006
  0.98300000000000010         -1.2640456807601390E-006
  0.98600000000000021         -1.4010840522805561E-006
  0.98900000000000010         -1.5496089048907662E-006
  0.99200000000000021         -1.7101177490216866E-006
  0.99500000000000011         -1.8830773049427947E-006
  0.99800000000000022         -2.0689012902116172E-006
   1.0010000000000001         -2.2679402447402558E-006
   1.0040000000000002         -2.4804573909039777E-006
   1.0070000000000001         -2.7066396821880868E-006
   1.0100000000000000         -2.9465596765190496E-006
   1.0130000000000001         -3.2001769714251981E-006
   1.0160000000000000         -3.4673071253907572E-006
   1.0190000000000001         -3.7476104258805999E-006
   1.0220000000000000         -4.0406048064626788E-006
   1.0250000000000001         -4.3456141428383163E-006
   1.0280000000000000         -4.6617754899933862E-006
   1.0310000000000001         -4.9880014702706219E-006
   1.0340000000000000         -5.3229818672130983E-006
   1.0370000000000001         -5.6652045931806683E-006
   1.0400000000000000         -6.0128479179943306E-006
   1.0430000000000001         -6.3639157619676412E-006
   1.0460000000000000         -6.7161224682069299E-006
   1.0490000000000002         -7.0669018401754501E-006
   1.0520000000000000         -7.4134190648930842E-006
   1.0550000000000002         -7.7526463700671938E-006
   1.0580000000000001         -8.0811579841958407E-006
   1.0610000000000002         -8.3955150998028434E-006
   1.0640000000000001         -8.6918957564936313E-006
   1.0670000000000002         -8.9662919671742112E-006
   1.0700000000000001         -9.2145028614607746E-006
   1.0730000000000002         -9.4322032433959296E-006
   1.0760000000000001         -9.6149608383259458E-006
   1.0790000000000002         -9.7582328035390320E-006
   1.0820000000000001         -9.8573852764496824E-006
   1.0850000000000002         -9.9078627031404063E-006
   1.0880000000000001         -9.9051291501515354E-006
   1.0910000000000002         -9.8449056370826683E-006
   1.0940000000000001         -9.7227562726520698E-006
   1.0970000000000002         -9.5347004451675120E-006
