 -0.39999999999999997          0.0000000000000000     
 -0.39699999999999996          0.0000000000000000     
 -0.39399999999999996          0.0000000000000000     
 -0.39099999999999996          0.0000000000000000     
 -0.38799999999999996          0.0000000000000000     
 -0.38499999999999995          0.0000000000000000     
 -0.38199999999999995          0.0000000000000000     
 -0.37899999999999995          0.0000000000000000     
 -0.37599999999999995          0.0000000000000000     
 -0.37299999999999994          0.0000000000000000     
 -0.37000000000000000          0.0000000000000000     
 -0.36699999999999999          0.0000000000000000     
 -0.36399999999999999          0.0000000000000000     
 -0.36099999999999999          0.0000000000000000     
 -0.35799999999999998          0.0000000000000000     
 -0.35499999999999998          0.0000000000000000     
 -0.35199999999999998          0.0000000000000000     
 -0.34899999999999998          0.0000000000000000     
 -0.34599999999999997          0.0000000000000000     
 -0.34299999999999997          0.0000000000000000     
 -0.33999999999999997          0.0000000000000000     
 -0.33699999999999997          0.0000000000000000     
 -0.33399999999999996          0.0000000000000000     
 -0.33099999999999996          0.0000000000000000     
 -0.32799999999999996          0.0000000000000000     
 -0.32499999999999996          0.0000000000000000     
 -0.32199999999999995          0.0000000000000000     
 -0.31899999999999995          0.0000000000000000     
 -0.31599999999999995          0.0000000000000000     
 -0.31299999999999994          0.0000000000000000     
 -0.30999999999999994          0.0000000000000000     
 -0.30699999999999994          0.0000000000000000     
 -0.30399999999999994          0.0000000000000000     
 -0.30099999999999993          0.0000000000000000     
 -0.29799999999999993          0.0000000000000000     
 -0.29499999999999998          0.0000000000000000     
 -0.29199999999999998          0.0000000000000000     
 -0.28899999999999998          0.0000000000000000     
 -0.28599999999999998          0.0000000000000000     
 -0.28299999999999997          0.0000000000000000     
 -0.27999999999999997          0.0000000000000000     
 -0.27699999999999997          0.0000000000000000     
 -0.27399999999999997          0.0000000000000000     
 -0.27099999999999996          0.0000000000000000     
 -0.26799999999999996          0.0000000000000000     
 -0.26499999999999996          0.0000000000000000     
 -0.26199999999999996          0.0000000000000000     
 -0.25899999999999995          0.0000000000000000     
 -0.25599999999999995          0.0000000000000000     
 -0.25300000000000000          0.0000000000000000     
 -0.24999999999999997          0.0000000000000000     
 -0.24699999999999997          0.0000000000000000     
 -0.24399999999999997          0.0000000000000000     
 -0.24099999999999996          0.0000000000000000     
 -0.23799999999999996          0.0000000000000000     
 -0.23499999999999996          0.0000000000000000     
 -0.23199999999999996          0.0000000000000000     
 -0.22899999999999995          0.0000000000000000     
 -0.22599999999999995          0.0000000000000000     
 -0.22299999999999998          0.0000000000000000     
 -0.21999999999999997          0.0000000000000000     
 -0.21699999999999997          0.0000000000000000     
 -0.21399999999999997          0.0000000000000000     
 -0.21099999999999997          0.0000000000000000     
 -0.20799999999999996          0.0000000000000000     
 -0.20499999999999996          0.0000000000000000     
 -0.20199999999999996          0.0000000000000000     
 -0.19899999999999995          0.0000000000000000     
 -0.19599999999999995          0.0000000000000000     
 -0.19299999999999995          0.0000000000000000     
 -0.18999999999999997          0.0000000000000000     
 -0.18699999999999997          0.0000000000000000     
 -0.18399999999999997          0.0000000000000000     
 -0.18099999999999997          0.0000000000000000     
 -0.17799999999999996          0.0000000000000000     
 -0.17499999999999996          0.0000000000000000     
 -0.17199999999999996          0.0000000000000000     
 -0.16899999999999996          0.0000000000000000     
 -0.16599999999999995          0.0000000000000000     
 -0.16299999999999995          0.0000000000000000     
 -0.15999999999999998          0.0000000000000000     
 -0.15699999999999997          0.0000000000000000     
 -0.15399999999999997          0.0000000000000000     
 -0.15099999999999997          0.0000000000000000     
 -0.14799999999999996          0.0000000000000000     
 -0.14499999999999996          0.0000000000000000     
 -0.14199999999999996          0.0000000000000000     
 -0.13899999999999996          0.0000000000000000     
 -0.13599999999999995          0.0000000000000000     
 -0.13299999999999995          0.0000000000000000     
 -0.12999999999999995          0.0000000000000000     
 -0.12699999999999995          0.0000000000000000     
 -0.12399999999999994          0.0000000000000000     
 -0.12099999999999994          0.0000000000000000     
 -0.11799999999999994          0.0000000000000000     
 -0.11499999999999994          0.0000000000000000     
 -0.11199999999999993          0.0000000000000000     
 -0.10899999999999999          0.0000000000000000     
 -0.10599999999999998          0.0000000000000000     
 -0.10299999999999998          0.0000000000000000     
  -9.9999999999999978E-002     0.0000000000000000     
  -9.6999999999999975E-002     0.0000000000000000     
  -9.3999999999999972E-002     0.0000000000000000     
  -9.0999999999999970E-002     0.0000000000000000     
  -8.7999999999999967E-002     0.0000000000000000     
  -8.4999999999999964E-002     0.0000000000000000     
  -8.1999999999999962E-002     0.0000000000000000     
  -7.8999999999999959E-002     0.0000000000000000     
  -7.5999999999999956E-002     0.0000000000000000     
  -7.2999999999999954E-002     0.0000000000000000     
  -6.9999999999999951E-002     0.0000000000000000     
  -6.6999999999999948E-002     0.0000000000000000     
  -6.3999999999999946E-002     0.0000000000000000     
  -6.0999999999999943E-002     0.0000000000000000     
  -5.7999999999999940E-002     0.0000000000000000     
  -5.4999999999999938E-002     0.0000000000000000     
  -5.1999999999999935E-002     0.0000000000000000     
  -4.8999999999999932E-002     0.0000000000000000     
  -4.5999999999999985E-002     0.0000000000000000     
  -4.2999999999999983E-002     0.0000000000000000     
  -3.9999999999999980E-002     0.0000000000000000     
  -3.6999999999999977E-002     0.0000000000000000     
  -3.3999999999999975E-002     0.0000000000000000     
  -3.0999999999999972E-002     0.0000000000000000     
  -2.7999999999999969E-002     0.0000000000000000     
  -2.4999999999999967E-002     0.0000000000000000     
  -2.1999999999999964E-002     0.0000000000000000     
  -1.8999999999999961E-002     0.0000000000000000     
  -1.5999999999999959E-002     0.0000000000000000     
  -1.2999999999999956E-002     0.0000000000000000     
  -9.9999999999999534E-003     0.0000000000000000     
  -6.9999999999999507E-003     0.0000000000000000     
  -3.9999999999999480E-003     0.0000000000000000     
  -9.9999999999994538E-004     0.0000000000000000     
   2.0000000000000573E-003     0.0000000000000000     
   5.0000000000000600E-003     0.0000000000000000     
   8.0000000000000626E-003     0.0000000000000000     
   1.1000000000000065E-002     0.0000000000000000     
   1.4000000000000068E-002     0.0000000000000000     
   1.7000000000000015E-002     0.0000000000000000     
   2.0000000000000018E-002     0.0000000000000000     
   2.3000000000000020E-002     0.0000000000000000     
   2.6000000000000023E-002     0.0000000000000000     
   2.9000000000000026E-002     0.0000000000000000     
   3.2000000000000028E-002     0.0000000000000000     
   3.5000000000000031E-002     0.0000000000000000     
   3.8000000000000034E-002     0.0000000000000000     
   4.1000000000000036E-002     0.0000000000000000     
   4.4000000000000039E-002     0.0000000000000000     
   4.7000000000000042E-002     0.0000000000000000     
   5.0000000000000044E-002     0.0000000000000000     
   5.3000000000000047E-002     0.0000000000000000     
   5.6000000000000050E-002     0.0000000000000000     
   5.9000000000000052E-002     0.0000000000000000     
   6.2000000000000055E-002     0.0000000000000000     
   6.5000000000000058E-002     0.0000000000000000     
   6.8000000000000060E-002     0.0000000000000000     
   7.1000000000000063E-002     0.0000000000000000     
   7.4000000000000066E-002     0.0000000000000000     
   7.7000000000000068E-002     0.0000000000000000     
   8.0000000000000016E-002     0.0000000000000000     
   8.3000000000000018E-002     0.0000000000000000     
   8.6000000000000021E-002     0.0000000000000000     
   8.9000000000000024E-002     0.0000000000000000     
   9.2000000000000026E-002     0.0000000000000000     
   9.5000000000000029E-002     0.0000000000000000     
   9.8000000000000032E-002     0.0000000000000000     
  0.10100000000000003          0.0000000000000000     
  0.10400000000000004          0.0000000000000000     
  0.10700000000000004          0.0000000000000000     
  0.11000000000000004          0.0000000000000000     
  0.11300000000000004          0.0000000000000000     
  0.11600000000000005          0.0000000000000000     
  0.11900000000000005          0.0000000000000000     
  0.12200000000000005          0.0000000000000000     
  0.12500000000000006          0.0000000000000000     
  0.12800000000000006          0.0000000000000000     
  0.13100000000000006          0.0000000000000000     
  0.13400000000000006          0.0000000000000000     
  0.13700000000000007          0.0000000000000000     
  0.14000000000000007          0.0000000000000000     
  0.14300000000000007          0.0000000000000000     
  0.14600000000000007          0.0000000000000000     
  0.14900000000000008          0.0000000000000000     
  0.15200000000000008          0.0000000000000000     
  0.15500000000000008          0.0000000000000000     
  0.15800000000000008          0.0000000000000000     
  0.16100000000000009          0.0000000000000000     
  0.16400000000000009          0.0000000000000000     
  0.16700000000000009          0.0000000000000000     
  0.17000000000000010          0.0000000000000000     
  0.17300000000000010          0.0000000000000000     
  0.17600000000000010          0.0000000000000000     
  0.17899999999999999          0.0000000000000000     
  0.18200000000000000          0.0000000000000000     
  0.18500000000000000          0.0000000000000000     
  0.18800000000000000          0.0000000000000000     
  0.19100000000000000          0.0000000000000000     
  0.19400000000000001          0.0000000000000000     
  0.19700000000000001          0.0000000000000000     
  0.20000000000000001          0.0000000000000000     
  0.20300000000000001          0.0000000000000000     
  0.20600000000000002          0.0000000000000000     
  0.20900000000000002          0.0000000000000000     
  0.21200000000000002          0.0000000000000000     
  0.21500000000000002          0.0000000000000000     
  0.21800000000000003          0.0000000000000000     
  0.22100000000000003          5.5808365761882108E-042
  0.22400000000000003         -1.8905039511660805E-041
  0.22700000000000004         -2.8880823183699064E-041
  0.23000000000000004          6.3039204788060137E-041
  0.23300000000000004          3.5693498263903657E-040
  0.23600000000000004         -2.1440753055247352E-041
  0.23900000000000005          2.3847880060096544E-041
  0.24200000000000005         -1.1845826307288862E-039
  0.24500000000000005         -5.6569000545773290E-040
  0.24800000000000005         -9.3437021209900177E-041
  0.25100000000000006          7.1557106903156337E-040
  0.25400000000000006          3.5899309522231280E-039
  0.25700000000000006         -9.1607473107988601E-039
  0.26000000000000006         -1.0919021234060474E-038
  0.26300000000000007         -1.8250671731096462E-039
  0.26600000000000007          8.0072972430989591E-039
  0.26900000000000007          3.0637360639418466E-038
  0.27200000000000008          5.2171408956002886E-038
  0.27500000000000008          5.5042483673819928E-038
  0.27800000000000008          1.7598987417342574E-038
  0.28100000000000008         -6.2830793084120744E-038
  0.28400000000000009         -1.7602741657936615E-037
  0.28700000000000009         -2.6847902555161828E-037
  0.29000000000000009         -2.5836378378210571E-037
  0.29300000000000009         -6.3202029883995973E-038
  0.29600000000000010          3.4703466910493388E-037
  0.29900000000000010          8.8798111927743792E-037
  0.30200000000000010          1.3221345578098591E-036
  0.30499999999999999          1.2849653170929786E-036
  0.30800000000000000          4.0830448490851773E-037
  0.31100000000000000         -1.4602920260056407E-036
  0.31400000000000000         -4.0000503983420370E-036
  0.31700000000000000         -6.2419297718437330E-036
  0.32000000000000001         -6.6352347398696150E-036
  0.32300000000000001         -3.4909117092919485E-036
  0.32600000000000001          4.1767736136866337E-036
  0.32900000000000001          1.5588406713287756E-035
  0.33200000000000002          2.7332679360310898E-035
  0.33500000000000002          3.3286433656138372E-035
  0.33800000000000002          2.5898952534777111E-035
  0.34100000000000003         -8.9747252921646828E-037
  0.34400000000000003         -4.7534463247746031E-035
  0.34700000000000003         -1.0465837808777264E-034
  0.35000000000000003         -1.5102829039176894E-034
  0.35300000000000004         -1.5581413644210147E-034
  0.35600000000000004         -8.7035414543480945E-035
  0.35900000000000004          7.3917081874053199E-035
  0.36200000000000004          3.1458636575317984E-034
  0.36500000000000005          5.7672940994727419E-034
  0.36800000000000005          7.5311316109008447E-034
  0.37100000000000005          7.0437992780085465E-034
  0.37400000000000005          3.0081213256419415E-034
  0.37700000000000006         -5.1415086819262128E-034
  0.38000000000000006         -1.6529770007071542E-033
  0.38300000000000006         -2.8315360275766694E-033
  0.38600000000000007         -3.5680681836803627E-033
  0.38900000000000007         -3.2642770794012126E-033
  0.39200000000000007         -1.3829864353476446E-033
  0.39500000000000007          2.2941995113040210E-033
  0.39800000000000008          7.3870050761718158E-033
  0.40100000000000008          1.2713019657082555E-032
  0.40400000000000008          1.6283612485552647E-032
  0.40700000000000008          1.5612113033636290E-032
  0.41000000000000009          8.3887805608423824E-033
  0.41300000000000009         -6.5325540424343533E-033
  0.41600000000000009         -2.8036930683664619E-032
  0.41900000000000009         -5.1887941769490466E-032
  0.42200000000000010         -7.0547712462027112E-032
  0.42500000000000010         -7.4104222208432409E-032
  0.42800000000000010         -5.2555832803574786E-032
  0.43100000000000011          6.5085158597408763E-034
  0.43400000000000000          8.4425807058695386E-032
  0.43700000000000000          1.8630756353037526E-031
  0.44000000000000000          2.8072661942798137E-031
  0.44300000000000000          3.3086036589127182E-031
  0.44600000000000001          2.9525699114504320E-031
  0.44900000000000001          1.3938459146848344E-031
  0.45200000000000001         -1.4928441680062733E-031
  0.45500000000000002         -5.4586834947139038E-031
  0.45800000000000002         -9.7719896020212849E-031
  0.46100000000000002         -1.3211492317811908E-030
  0.46400000000000002         -1.4212658673500873E-030
  0.46700000000000003         -1.1193591699678433E-030
  0.47000000000000003         -3.0432403822399889E-031
  0.47300000000000003          1.0303191195475929E-030
  0.47600000000000003          2.7337552180590140E-030
  0.47900000000000004          4.4683053573146459E-030
  0.48200000000000004          5.7223870956563497E-030
  0.48500000000000004          5.8814039120946000E-030
  0.48800000000000004          4.3616577498036610E-030
  0.49100000000000005          7.9621850641402311E-031
  0.49400000000000005         -4.7581255399008768E-030
  0.49700000000000005         -1.1643026625053094E-029
  0.50000000000000000         -1.8513095644713958E-029
  0.50300000000000011         -2.3406814034254310E-029
  0.50600000000000001         -2.4021013250299425E-029
  0.50900000000000012         -1.8199519033660732E-029
  0.51200000000000001         -4.5921676721505617E-030
  0.51500000000000012          1.6623839265081837E-029
  0.51800000000000002          4.3128791142085039E-029
  0.52100000000000013          7.0159917735830656E-029
  0.52400000000000002          9.0733649487630123E-029
  0.52700000000000014          9.6544532657620105E-029
  0.53000000000000003          7.9579178534578333E-029
  0.53300000000000014          3.4314077892264551E-029
  0.53600000000000003         -3.9833798394501515E-029
  0.53900000000000015         -1.3632624412015495E-028
  0.54200000000000004         -2.4024699241930478E-028
  0.54500000000000015         -3.2864029032959869E-028
  0.54800000000000004         -3.7297383562240696E-028
  0.55100000000000016         -3.4393292084664700E-028
  0.55400000000000005         -2.1826036332140187E-028
  0.55700000000000016          1.3239386453663470E-029
  0.56000000000000005          3.3801149173943274E-028
  0.56299999999999994          7.1631887980691580E-028
  0.56600000000000006          1.0801717770816338E-027
  0.56899999999999995          1.3384546383649518E-027
  0.57200000000000006          1.3893014503250451E-027
  0.57499999999999996          1.1394781697534017E-027
  0.57800000000000007          5.2885373290124105E-028
  0.58099999999999996         -4.4376533041510983E-028
  0.58400000000000007         -1.6987391218469173E-027
  0.58699999999999997         -3.0638581704130150E-027
  0.59000000000000008         -4.2788470052156387E-027
  0.59299999999999997         -5.0206779458207459E-027
  0.59600000000000009         -4.9512656855008735E-027
  0.59899999999999998         -3.7848444229574636E-027
  0.60200000000000009         -1.3672602427268924E-027
  0.60500000000000020          2.2455995362823725E-027
  0.60800000000000010          6.7269353751812248E-027
  0.61100000000000021          1.1454072203800763E-026
  0.61400000000000010          1.5536128903937372E-026
  0.61700000000000021          1.7905606503319014E-026
  0.62000000000000011          1.7475665838431265E-026
  0.62300000000000022          1.3352325468955107E-026
  0.62600000000000011          5.0766008398495447E-027
  0.62900000000000000         -7.1418791612596537E-027
  0.63200000000000012         -2.2248083996856457E-026
  0.63500000000000001         -3.8273261279131659E-026
  0.63800000000000012         -5.2421242555040166E-026
  0.64100000000000001         -6.1339460166925646E-026
  0.64400000000000013         -6.1578868000018215E-026
  0.64700000000000002         -5.0212565635158238E-026
  0.65000000000000013         -2.5545067971775484E-026
  0.65300000000000002          1.2191663412264156E-026
  0.65600000000000014          6.0286802569515310E-026
  0.65900000000000003          1.1328481840633410E-025
  0.66200000000000014          1.6313494650512237E-025
  0.66500000000000004          1.9984746475764167E-025
  0.66800000000000015          2.1268410703201740E-025
  0.67100000000000004          1.9182404577535717E-025
  0.67400000000000015          1.3034990487905889E-025
  0.67700000000000005          2.6300532862074322E-026
  0.68000000000000016         -1.1553981590518055E-025
  0.68300000000000005         -2.8249059425408609E-025
  0.68600000000000017         -4.5382698907374845E-025
  0.68900000000000006         -6.0193125381840380E-025
  0.69200000000000017         -6.9490182463008546E-025
  0.69500000000000006         -7.0058359051905403E-025
  0.69800000000000018         -5.9174726506158765E-025
  0.70100000000000007         -3.5188999738008605E-025
  0.70400000000000018          1.9099274939791407E-026
  0.70700000000000007          5.0033649534659475E-025
  0.71000000000000019          1.0473967006596177E-024
  0.71300000000000008          1.5927524754868696E-024
  0.71600000000000019          2.0498985728276728E-024
  0.71900000000000008          2.3214852856949221E-024
  0.72200000000000020          2.3112629563667826E-024
  0.72500000000000009          1.9390169641480759E-024
  0.72800000000000020          1.1570480702103356E-024
  0.73100000000000009         -3.3845840933957075E-026
  0.73400000000000021         -1.5713423293686380E-024
  0.73700000000000010         -3.3241675653799020E-024
  0.74000000000000021         -5.0927419333717313E-024
  0.74300000000000010         -6.6198660563924718E-024
  0.74600000000000022         -7.6124382955616051E-024
  0.74900000000000011         -7.7739303142147177E-024
  0.75200000000000022         -6.8457984628120720E-024
  0.75500000000000012         -4.6542927878143772E-024
  0.75800000000000001         -1.1575686247306029E-024
  0.76100000000000012          3.5133071468731304E-024
  0.76400000000000001          9.0265753674794260E-024
  0.76700000000000013          1.4842347237343408E-023
  0.77000000000000002          2.0231613402205453E-023
  0.77300000000000013          2.4325801920566919E-023
  0.77600000000000002          2.6197969043084891E-023
  0.77900000000000014          2.4972781759690970E-023
  0.78200000000000003          1.9957984243783660E-023
  0.78500000000000014          1.0785489941625009E-023
  0.78800000000000003         -2.4539910796242751E-024
  0.79100000000000015         -1.9101922582038115E-023
  0.79400000000000004         -3.7869121445992983E-023
  0.79700000000000015         -5.6838930406465020E-023
  0.80000000000000004         -7.3552509903030063E-023
  0.80300000000000016         -8.5186009484905719E-023
  0.80600000000000005         -8.8820111909093751E-023
  0.80900000000000016         -8.1791052643756173E-023
  0.81200000000000006         -6.2098944557609445E-023
  0.81500000000000017         -2.8836632269418834E-023
  0.81800000000000006          1.7409697491186851E-023
  0.82100000000000017          7.4245146493359779E-023
  0.82400000000000007          1.3729660794747619E-022
  0.82700000000000018          2.0024640060314402E-022
  0.83000000000000007          2.5511548041217427E-022
  0.83300000000000018          2.9282387512325144E-022
  0.83600000000000008          3.0402831104767384E-022
  0.83900000000000019          2.8020436579990235E-022
  0.84200000000000008          2.1490181562438158E-022
  0.84500000000000020          1.0506565100526156E-022
  0.84800000000000009         -4.7720539136855772E-023
  0.85100000000000020         -2.3623657442931689E-022
  0.85400000000000009         -4.4705166586161329E-022
  0.85700000000000021         -6.6054607896369719E-022
  0.86000000000000010         -8.5167403191439557E-022
  0.86300000000000021         -9.9155519653747613E-022
  0.86600000000000010         -1.0499155543881882E-021
  0.86900000000000022         -9.9829578545312672E-022
  0.87200000000000011         -8.1384607787410150E-022
  0.87500000000000022         -4.8340696945156619E-022
  0.87800000000000011         -7.4816357057360354E-024
  0.88100000000000001          5.9638411971635038E-022
  0.88400000000000012          1.2913392362484867E-021
  0.88700000000000001          2.0206090929317358E-021
  0.89000000000000012          2.7089879620240637E-021
  0.89300000000000002          3.2667728830842501E-021
  0.89600000000000013          3.5962974593099381E-021
  0.89900000000000002          3.6009423726843604E-021
  0.90200000000000014          3.1962303554726374E-021
  0.90500000000000003          2.3222680706146179E-021
  0.90800000000000014          9.5649068235068114E-022
  0.91100000000000003         -8.7461433468839582E-022
  0.91400000000000015         -3.0863195059677590E-021
  0.91700000000000004         -5.5306153095326903E-021
  0.92000000000000015         -7.9968204501214727E-021
  0.92300000000000004         -1.0219125194799243E-020
  0.92600000000000016         -1.1891892417737507E-020
  0.92900000000000005         -1.2692901804268957E-020
  0.93200000000000016         -1.2313937820557524E-020
  0.93500000000000005         -1.0497192456748736E-020
  0.93800000000000017         -7.0750276067848560E-021
  0.94100000000000006         -2.0096733822249188E-021
  0.94400000000000017          4.5712672148284989E-021
  0.94700000000000006          1.2348206681595959E-020
  0.95000000000000018          2.0796708194536915E-020
  0.95300000000000007          2.9192843258423634E-020
  0.95600000000000018          3.6640450351643225E-020
  0.95900000000000007          4.2122633225431672E-020
  0.96200000000000019          4.4577725271750699E-020
  0.96500000000000008          4.2997765784521024E-020
  0.96800000000000019          3.6544568547911280E-020
  0.97100000000000009          2.4675765022358672E-020
  0.97400000000000020          7.2704461903630606E-021
  0.97700000000000009         -1.5258308396812422E-020
  0.98000000000000020         -4.1878288790206994E-020
  0.98300000000000010         -7.0894950148292238E-020
  0.98600000000000021         -9.9964285116534469E-020
  0.98900000000000010         -1.2617285116844140E-019
  0.99200000000000021         -1.4619272451173235E-019
  0.99500000000000011         -1.5651295954487954E-019
  0.99800000000000022         -1.5374242933987181E-019
   1.0010000000000001         -1.3497049966794301E-019
   1.0040000000000002         -9.8164081668213988E-020
   1.0070000000000001         -4.2570535540426693E-020
   1.0100000000000000          3.0910624455894991E-020
   1.0130000000000001          1.1942991729533573E-019
   1.0160000000000000          2.1800902498508257E-019
   1.0190000000000001          3.1952404178586754E-019
   1.0220000000000000          4.1488900082479104E-019
   1.0250000000000001          4.9346681336059432E-019
   1.0280000000000000          5.4371912494060899E-019
   1.0310000000000001          5.5408843070583238E-019
   1.0340000000000000          5.1408041621224001E-019
   1.0370000000000001          4.1549086756637192E-019
   1.0400000000000000          2.5369631631727338E-019
   1.0430000000000001          2.8902327833374668E-020
   1.0460000000000000         -2.5277418197678758E-019
   1.0490000000000002         -5.7852230530582720E-019
   1.0520000000000000         -9.2849400097234209E-019
   1.0550000000000002         -1.2760240504061602E-018
   1.0580000000000001         -1.5885204736799560E-018
   1.0610000000000002         -1.8290856300921985E-018
   1.0640000000000001         -1.9588877072695871E-018
   1.0670000000000002         -1.9402265917127316E-018
   1.0700000000000001         -1.7401783668043852E-018
   1.0730000000000002         -1.3346131136640248E-018
   1.0760000000000001         -7.1231849019585628E-019
   1.0790000000000002          1.2111820993349426E-019
   1.0820000000000001          1.1400559077819781E-018
   1.0850000000000002          2.2965953655979293E-018
   1.0880000000000001          3.5198452674308048E-018
   1.0910000000000002          4.7170277004810751E-018
   1.0940000000000001          5.7767258915814230E-018
   1.0970000000000002          6.5744481211287715E-018
