 -0.39999999999999997          0.0000000000000000     
 -0.39699999999999996          0.0000000000000000     
 -0.39399999999999996          0.0000000000000000     
 -0.39099999999999996          0.0000000000000000     
 -0.38799999999999996          0.0000000000000000     
 -0.38499999999999995          0.0000000000000000     
 -0.38199999999999995          0.0000000000000000     
 -0.37899999999999995          0.0000000000000000     
 -0.37599999999999995          0.0000000000000000     
 -0.37299999999999994          0.0000000000000000     
 -0.37000000000000000          0.0000000000000000     
 -0.36699999999999999          0.0000000000000000     
 -0.36399999999999999          0.0000000000000000     
 -0.36099999999999999          0.0000000000000000     
 -0.35799999999999998          0.0000000000000000     
 -0.35499999999999998          0.0000000000000000     
 -0.35199999999999998          0.0000000000000000     
 -0.34899999999999998          0.0000000000000000     
 -0.34599999999999997          0.0000000000000000     
 -0.34299999999999997          0.0000000000000000     
 -0.33999999999999997          0.0000000000000000     
 -0.33699999999999997          0.0000000000000000     
 -0.33399999999999996          0.0000000000000000     
 -0.33099999999999996          0.0000000000000000     
 -0.32799999999999996          0.0000000000000000     
 -0.32499999999999996          0.0000000000000000     
 -0.32199999999999995          0.0000000000000000     
 -0.31899999999999995          0.0000000000000000     
 -0.31599999999999995          0.0000000000000000     
 -0.31299999999999994          0.0000000000000000     
 -0.30999999999999994          0.0000000000000000     
 -0.30699999999999994          0.0000000000000000     
 -0.30399999999999994          0.0000000000000000     
 -0.30099999999999993          0.0000000000000000     
 -0.29799999999999993          0.0000000000000000     
 -0.29499999999999998          0.0000000000000000     
 -0.29199999999999998          0.0000000000000000     
 -0.28899999999999998          0.0000000000000000     
 -0.28599999999999998          0.0000000000000000     
 -0.28299999999999997          0.0000000000000000     
 -0.27999999999999997          0.0000000000000000     
 -0.27699999999999997          0.0000000000000000     
 -0.27399999999999997          0.0000000000000000     
 -0.27099999999999996          0.0000000000000000     
 -0.26799999999999996          0.0000000000000000     
 -0.26499999999999996          0.0000000000000000     
 -0.26199999999999996          0.0000000000000000     
 -0.25899999999999995          0.0000000000000000     
 -0.25599999999999995          0.0000000000000000     
 -0.25300000000000000          0.0000000000000000     
 -0.24999999999999997          2.8843601659977928E-042
 -0.24699999999999997         -5.3075364789250142E-042
 -0.24399999999999997         -2.7151580967972832E-042
 -0.24099999999999996          4.7030878412452989E-041
 -0.23799999999999996         -1.7454964180668474E-041
 -0.23499999999999996          2.0349182594123941E-040
 -0.23199999999999996         -4.5691827827044675E-040
 -0.22899999999999995         -4.7358627458579124E-040
 -0.22599999999999995          1.9329969561629377E-039
 -0.22299999999999998          1.2880295306290778E-038
 -0.21999999999999997         -1.4232500890415295E-038
 -0.21699999999999997         -4.9999311041668860E-038
 -0.21399999999999997          4.1317862513188346E-038
 -0.21099999999999997          1.8625875511623704E-037
 -0.20799999999999996         -1.9595091720315390E-037
 -0.20499999999999996         -6.5245019207402996E-037
 -0.20199999999999996          7.6053078814507363E-037
 -0.19899999999999995          2.1788186384288224E-036
 -0.19599999999999995         -2.5177498010159255E-036
 -0.19299999999999995         -6.9640319642002533E-036
 -0.18999999999999997          7.1037185507941978E-036
 -0.18699999999999997          2.1166886422832845E-035
 -0.18399999999999997         -1.6242320309329781E-035
 -0.18099999999999997         -6.0038952407589249E-035
 -0.17799999999999996          2.4840438304807557E-035
 -0.17499999999999996          1.5334877941633307E-034
 -0.17199999999999996          6.0149638790359295E-036
 -0.16899999999999996         -3.2871792324419136E-034
 -0.16599999999999995         -2.1700562034615405E-034
 -0.16299999999999995          4.8344806442820717E-034
 -0.15999999999999998          9.2798945431831619E-034
 -0.15699999999999997          8.0825945286884125E-035
 -0.15399999999999997         -2.3815703428301746E-033
 -0.15099999999999997         -3.7074233109649673E-033
 -0.14799999999999996          2.8679701722749807E-033
 -0.14499999999999996          1.5141707658641647E-032
 -0.14199999999999996          7.3969787130286452E-033
 -0.13899999999999996         -3.6099448163715891E-032
 -0.13599999999999995         -5.6682397145271383E-032
 -0.13299999999999995          3.6581223741850995E-032
 -0.12999999999999995          1.8423457881395783E-031
 -0.12699999999999995          1.1627423919841461E-031
 -0.12399999999999994         -3.2628038945557076E-031
 -0.12099999999999994         -7.0574723649430099E-031
 -0.11799999999999994         -6.2193262257350826E-032
 -0.11499999999999994          1.7856112048790604E-030
 -0.11199999999999993          2.5219587292164178E-030
 -0.10899999999999999         -1.4329252719046346E-030
 -0.10599999999999998         -8.5414124151494620E-030
 -0.10299999999999998         -7.5009347120619012E-030
  -9.9999999999999978E-002     1.2093657054588304E-029
  -9.6999999999999975E-002     3.5385158364448551E-029
  -9.3999999999999972E-002     1.7421176030385075E-029
  -9.0999999999999970E-002    -6.5537148414063346E-029
  -8.7999999999999967E-002    -1.3579262182695005E-028
  -8.4999999999999964E-002    -2.6584720395522701E-029
  -8.1999999999999962E-002     3.0469516534847831E-028
  -7.8999999999999959E-002     5.0496721431681086E-028
  -7.5999999999999956E-002    -3.2821057941682281E-029
  -7.2999999999999954E-002    -1.3063187047334645E-027
  -6.9999999999999951E-002    -1.8331379221607236E-027
  -6.6999999999999948E-002     5.1549191468664912E-028
  -6.3999999999999946E-002     5.2678812420620028E-027
  -6.0999999999999943E-002     6.6370289768934111E-027
  -5.7999999999999940E-002    -2.8121157497494221E-027
  -5.4999999999999938E-002    -2.0386754251949898E-026
  -5.1999999999999935E-002    -2.4389152390771421E-026
  -4.8999999999999932E-002     1.1560683491252450E-026
  -4.5999999999999985E-002     7.6364665864426494E-026
  -4.2999999999999983E-002     9.1250554395314403E-026
  -3.9999999999999980E-002    -3.8649189284000298E-026
  -3.6999999999999977E-002    -2.7669052721547054E-025
  -3.3999999999999975E-002    -3.4674301115341982E-025
  -3.0999999999999972E-002     9.7449188614056812E-026
  -2.7999999999999969E-002     9.6559926170333677E-025
  -2.4999999999999967E-002     1.3246790184165061E-024
  -2.1999999999999964E-002    -9.7260132283584975E-026
  -1.8999999999999961E-002    -3.2109861093484804E-024
  -1.5999999999999959E-002    -5.0075885313535998E-024
  -1.2999999999999956E-002    -8.5891373372537634E-025
  -9.9999999999999534E-003     9.9758669962091758E-024
  -6.9999999999999507E-003     1.8408541553267782E-023
  -3.9999999999999480E-003     8.0260157364395644E-024
  -9.9999999999994538E-004    -2.7942190172617227E-023
   2.0000000000000573E-003    -6.4600834108120569E-023
   5.0000000000000600E-003    -4.6221698018041148E-023
   8.0000000000000626E-003     6.5126302821113318E-023
   1.1000000000000065E-002     2.1181565448982252E-022
   1.4000000000000068E-002     2.1639814475231362E-022
   1.7000000000000015E-002    -9.3859810177278933E-023
   2.0000000000000018E-002    -6.3007450428869881E-022
   2.3000000000000020E-002    -8.7661594764029269E-022
   2.6000000000000023E-002    -1.5191988629916894E-022
   2.9000000000000026E-002     1.6137959722273555E-021
   3.2000000000000028E-002     3.1150266174289582E-021
   3.5000000000000031E-002     1.9858670195175568E-021
   3.8000000000000034E-002    -3.1106842154169696E-021
   4.1000000000000036E-002    -9.5953226553307064E-021
   4.4000000000000039E-002    -1.0306503347238969E-020
   4.7000000000000042E-002     1.8267350747089062E-021
   5.0000000000000044E-002     2.4502629557107991E-020
   5.3000000000000047E-002     3.9502048690041782E-020
   5.6000000000000050E-002     1.9846043020392568E-020
   5.9000000000000052E-002    -4.5074592069767569E-020
   6.2000000000000055E-002    -1.2032055787781130E-019
   6.5000000000000058E-002    -1.2399274987868124E-019
   6.8000000000000060E-002     1.8854209542516396E-020
   7.1000000000000063E-002     2.8030910826785300E-019
   7.4000000000000066E-002     4.6635439666658439E-019
   7.7000000000000068E-002     2.8892552087502937E-019
   8.0000000000000016E-002    -3.8968018119165005E-019
   8.3000000000000018E-002    -1.2660630657275148E-018
   8.6000000000000021E-002    -1.5430023524878438E-018
   8.9000000000000024E-002    -3.7426468411297419E-019
   9.2000000000000026E-002     2.2604973337612230E-018
   9.5000000000000029E-002     4.8329420157227299E-018
   9.8000000000000032E-002     4.5798507581627771E-018
  0.10100000000000003         -6.4836702753617586E-019
  0.10400000000000004         -9.6960382650733848E-018
  0.10700000000000004         -1.6631376775863132E-017
  0.11000000000000004         -1.2874904668201250E-017
  0.11300000000000004          6.4884110542716451E-018
  0.11600000000000005          3.5240304281584325E-017
  0.11900000000000005          5.3633888647569084E-017
  0.12200000000000005          3.6821843821495210E-017
  0.12500000000000006         -2.6221153383430758E-017
  0.12800000000000006         -1.1326314317620150E-016
  0.13100000000000006         -1.6562544250033406E-016
  0.13400000000000006         -1.1424931227895285E-016
  0.13700000000000007          6.9057489057760662E-017
  0.14000000000000007          3.2265447871894108E-016
  0.14300000000000007          4.8947908560534443E-016
  0.14600000000000007          3.8362303643091229E-016
  0.14900000000000008         -8.3549310726354942E-017
  0.15200000000000008         -7.8244567568152328E-016
  0.15500000000000008         -1.3418282778220334E-015
  0.15800000000000008         -1.2869951559320907E-015
  0.16100000000000009         -3.1667886679696564E-016
  0.16400000000000009          1.4105460180638249E-015
  0.16700000000000009          3.1677411571783237E-015
  0.17000000000000010          3.8696173325846409E-015
  0.17300000000000010          2.5871302651121435E-015
  0.17600000000000010         -8.4119858861774195E-016
  0.17899999999999999         -5.4298983303166879E-015
  0.18200000000000000         -9.1828348482965883E-015
  0.18500000000000000         -9.8096209991582665E-015
  0.18800000000000000         -5.7879317995269578E-015
  0.19100000000000000          2.6846196293682746E-015
  0.19400000000000001          1.3322221287966259E-014
  0.19700000000000001          2.2225729608741345E-014
  0.20000000000000001          2.5113506957422747E-014
  0.20300000000000001          1.8904856164964371E-014
  0.20600000000000002          3.1046076618490547E-015
  0.20900000000000002         -1.9500056580620289E-014
  0.21200000000000002         -4.3102853699531822E-014
  0.21500000000000002         -6.0103106180286107E-014
  0.21800000000000003         -6.3046233742660171E-014
  0.22100000000000003         -4.6845239779492907E-014
  0.22400000000000003         -1.0729929907144715E-014
  0.22700000000000004          4.0643567569162347E-014
  0.23000000000000004          9.7351056225930516E-014
  0.23300000000000004          1.4574751305367086E-013
  0.23600000000000004          1.7112552428052143E-013
  0.23900000000000005          1.6088355868563473E-013
  0.24200000000000005          1.0751495306836279E-013
  0.24500000000000005          1.0905283974142078E-014
  0.24800000000000005         -1.2027945251282913E-013
  0.25100000000000006         -2.6816895648595283E-013
  0.25400000000000006         -4.0639193916868316E-013
  0.25700000000000006         -5.0234750499230030E-013
  0.26000000000000006         -5.2159526427740385E-013
  0.26300000000000007         -4.3453338081595404E-013
  0.26600000000000007         -2.2461757991344382E-013
  0.26900000000000007          1.0370029703772872E-013
  0.27200000000000008          5.1976580463644701E-013
  0.27500000000000008          9.6641275025966513E-013
  0.27800000000000008          1.3655185179095905E-012
  0.28100000000000008          1.6287999901416264E-012
  0.28400000000000009          1.6719451395102658E-012
  0.28700000000000009          1.4296736959772499E-012
  0.29000000000000009          8.6953994594844989E-013
  0.29300000000000009          2.7910515293697427E-015
  0.29600000000000010         -1.1090771057834367E-012
  0.29900000000000010         -2.3533681023243139E-012
  0.30200000000000010         -3.5720458281314331E-012
  0.30499999999999999         -4.5750846602278231E-012
  0.30800000000000000         -5.1608597559445045E-012
  0.31100000000000000         -5.1417824031368055E-012
  0.31400000000000000         -4.3722352860296574E-012
  0.31700000000000000         -2.7754686510279784E-012
  0.32000000000000001         -3.6622575163314727E-013
  0.32300000000000001          2.7337230950095874E-012
  0.32600000000000001          6.2896454856083779E-012
  0.32900000000000001          9.9597913266861029E-012
  0.33200000000000002          1.3314919099744847E-011
  0.33500000000000002          1.5871856189898472E-011
  0.33800000000000002          1.7139615887766806E-011
  0.34100000000000003          1.6674413521037314E-011
  0.34400000000000003          1.4138167177515600E-011
  0.34700000000000003          9.3542376432156316E-012
  0.35000000000000003          2.3540485686109996E-012
  0.35300000000000004         -6.5912141848448522E-012
  0.35600000000000004         -1.6958879899976521E-011
  0.35900000000000004         -2.7986802431432166E-011
  0.36200000000000004         -3.8711125408799287E-011
  0.36500000000000005         -4.8029331603627591E-011
  0.36800000000000005         -5.4785034784176399E-011
  0.37100000000000005         -5.7868886058254731E-011
  0.37400000000000005         -5.6327693902058353E-011
  0.37700000000000006         -4.9474201983595103E-011
  0.38000000000000006         -3.6989009335271789E-011
  0.38300000000000006         -1.9007253710656977E-011
  0.38600000000000007          3.8165489126943670E-012
  0.38900000000000007          3.0272631092756676E-011
  0.39200000000000007          5.8591918750570928E-011
  0.39500000000000007          8.6476154578554714E-011
  0.39800000000000008          1.1116055780435401E-010
  0.40100000000000008          1.2950361298792319E-010
  0.40400000000000008          1.3809747948504392E-010
  0.40700000000000008          1.3338994444519156E-010
  0.41000000000000009          1.1180739438227747E-010
  0.41300000000000009          6.9864415288396806E-011
  0.41600000000000009          4.2526030715253721E-012
  0.41900000000000009         -8.8114039851362390E-011
  0.42200000000000010         -2.1009777613212586E-010
  0.42500000000000010         -3.6439456333004537E-010
  0.42800000000000010         -5.5365582776145649E-010
  0.43100000000000011         -7.8066492780435082E-010
  0.43400000000000000         -1.0485786277823273E-009
  0.43700000000000000         -1.3612185261066909E-009
  0.44000000000000000         -1.7234115826556290E-009
  0.44300000000000000         -2.1413792758421101E-009
  0.44600000000000001         -2.6231317481453187E-009
  0.44900000000000001         -3.1789052816924829E-009
  0.45200000000000001         -3.8215973125929555E-009
  0.45500000000000002         -4.5672190299520139E-009
  0.45800000000000002         -5.4353229673644508E-009
  0.46100000000000002         -6.4494849643960548E-009
  0.46400000000000002         -7.6377381161536656E-009
  0.46700000000000003         -9.0330467135565825E-009
  0.47000000000000003         -1.0673815275733698E-008
  0.47300000000000003         -1.2604396109621792E-008
  0.47600000000000003         -1.4875660342637468E-008
  0.47900000000000004         -1.7545673815044925E-008
  0.48200000000000004         -2.0680381630951080E-008
  0.48500000000000004         -2.4354439011320151E-008
  0.48800000000000004         -2.8652170711661434E-008
  0.49100000000000005         -3.3668635620785042E-008
  0.49400000000000005         -3.9510799430772768E-008
  0.49700000000000005         -4.6298888388496380E-008
  0.50000000000000000         -5.4167914323412179E-008
  0.50300000000000011         -6.3269147434382199E-008
  0.50600000000000001         -7.3772174819296327E-008
  0.50900000000000012         -8.5866531872185753E-008
  0.51200000000000001         -9.9763525463075814E-008
  0.51500000000000012         -1.1569885544934259E-007
  0.51800000000000002         -1.3393387841943480E-007
  0.52100000000000013         -1.5475836116063165E-007
  0.52400000000000002         -1.7849238436530114E-007
  0.52700000000000014         -2.0548826057523062E-007
  0.53000000000000003         -2.3613278922638246E-007
  0.53300000000000014         -2.7084880240358003E-007
  0.53600000000000003         -3.1009682707965522E-007
  0.53900000000000015         -3.5437667922528307E-007
  0.54200000000000004         -4.0422878713626034E-007
  0.54500000000000015         -4.6023481113193832E-007
  0.54800000000000004         -5.2301905881146826E-007
  0.55100000000000016         -5.9324710315216785E-007
  0.55400000000000005         -6.7162654602386886E-007
  0.55700000000000016         -7.5890566535099664E-007
  0.56000000000000005         -8.5587202574315091E-007
  0.56299999999999994         -9.6334929432954837E-007
  0.56600000000000006         -1.0821949546764997E-006
  0.56899999999999995         -1.2132955183242698E-006
  0.57200000000000006         -1.3575619179305762E-006
  0.57499999999999996         -1.5159237513319260E-006
  0.57800000000000007         -1.6893201503141994E-006
  0.58099999999999996         -1.8786922788206462E-006
  0.58400000000000007         -2.0849742240327844E-006
  0.58699999999999997         -2.3090769891153450E-006
  0.59000000000000008         -2.5518833328700258E-006
  0.59299999999999997         -2.8142268772263086E-006
  0.59600000000000009         -3.0968759243168253E-006
  0.59899999999999998         -3.4005224038721965E-006
  0.60200000000000009         -3.7257549799175461E-006
  0.60500000000000020         -4.0730465625267502E-006
  0.60800000000000010         -4.4427264577011023E-006
  0.61100000000000021         -4.8349658019073199E-006
  0.61400000000000010         -5.2497451576367622E-006
  0.61700000000000021         -5.6868307956503107E-006
  0.62000000000000011         -6.1457624100773649E-006
  0.62300000000000022         -6.6258155271158506E-006
  0.62600000000000011         -7.1259885505226170E-006
  0.62900000000000000         -7.6449645691616937E-006
  0.63200000000000012         -8.1811076021211170E-006
  0.63500000000000001         -8.7324216406859469E-006
  0.63800000000000012         -9.2965547710904288E-006
  0.64100000000000001         -9.8707599773808705E-006
  0.64400000000000013         -1.0451890716923447E-005
  0.64700000000000002         -1.1036418653819346E-005
  0.65000000000000013         -1.1620374757266395E-005
  0.65300000000000002         -1.2199381473288585E-005
  0.65600000000000014         -1.2768678799232240E-005
  0.65900000000000003         -1.3323075580380189E-005
  0.66200000000000014         -1.3857013933651067E-005
  0.66500000000000004         -1.4364583635300172E-005
  0.66800000000000015         -1.4839532492749045E-005
  0.67100000000000004         -1.5275322437808487E-005
  0.67400000000000015         -1.5665142891592906E-005
  0.67700000000000005         -1.6002033158084738E-005
  0.68000000000000016         -1.6278838184697409E-005
  0.68300000000000005         -1.6488365980462795E-005
  0.68600000000000017         -1.6623398438908115E-005
  0.68900000000000006         -1.6676792696937429E-005
  0.69200000000000017         -1.6641561339783289E-005
  0.69500000000000006         -1.6510985413714318E-005
  0.69800000000000018         -1.6278660775590005E-005
  0.70100000000000007         -1.5938622587216071E-005
  0.70400000000000018         -1.5485440784449452E-005
  0.70700000000000007         -1.4914311235454906E-005
  0.71000000000000019         -1.4221164759436269E-005
  0.71300000000000008         -1.3402765929293928E-005
  0.71600000000000019         -1.2456790866370142E-005
  0.71900000000000008         -1.1381885282148907E-005
  0.72200000000000020         -1.0177827767513216E-005
  0.72500000000000009         -8.8455328630573837E-006
  0.72800000000000020         -7.3871291866670780E-006
  0.73100000000000009         -5.8060276113478920E-006
  0.73400000000000021         -4.1069719558598645E-006
  0.73700000000000010         -2.2960243920514933E-006
  0.74000000000000021         -3.8055083200027121E-007
  0.74300000000000010          1.6306824289722470E-006
  0.74600000000000022          3.7276450136311330E-006
  0.74900000000000011          5.8990114349645430E-006
  0.75200000000000022          8.1322448421645629E-006
  0.75500000000000012          1.0413691710591728E-005
  0.75800000000000001          1.2728625601212121E-005
  0.76100000000000012          1.5061444285693015E-005
  0.76400000000000001          1.7395689801647177E-005
  0.76700000000000013          1.9714307484854413E-005
  0.77000000000000002          2.1999704785517647E-005
  0.77300000000000013          2.4233954937658239E-005
  0.77600000000000002          2.6398994571967637E-005
  0.77900000000000014          2.8476825491428377E-005
  0.78200000000000003          3.0449664093606853E-005
  0.78500000000000014          3.2300171556146688E-005
  0.78800000000000003          3.4011565545606070E-005
  0.79100000000000015          3.5567974068651341E-005
  0.79400000000000004          3.6954474931447921E-005
  0.79700000000000015          3.8157344592521808E-005
  0.80000000000000004          3.9164280043293798E-005
  0.80300000000000016          3.9964480241616343E-005
  0.80600000000000005          4.0548781185765467E-005
  0.80900000000000016          4.0909842465632132E-005
  0.81200000000000006          4.1042211846701149E-005
  0.81500000000000017          4.0942405519800880E-005
  0.81800000000000006          4.0608983486118711E-005
  0.82100000000000017          4.0042634199110620E-005
  0.82400000000000007          3.9246109882130240E-005
  0.82700000000000018          3.8224234783564530E-005
  0.83000000000000007          3.6983887569086900E-005
  0.83300000000000018          3.5533879805221867E-005
  0.83600000000000008          3.3884922285960889E-005
  0.83900000000000019          3.2049527047382216E-005
  0.84200000000000008          3.0041852311652667E-005
  0.84500000000000020          2.7877516806172212E-005
  0.84800000000000009          2.5573506601908492E-005
  0.85100000000000020          2.3147846677560697E-005
  0.85400000000000009          2.0619538758480076E-005
  0.85700000000000021          1.8008335604383897E-005
  0.86000000000000010          1.5334435244427141E-005
  0.86300000000000021          1.2618372663591385E-005
  0.86600000000000010          9.8807780000669734E-006
  0.86900000000000022          7.1421324642630315E-006
  0.87200000000000011          4.4224727990341893E-006
  0.87500000000000022          1.7412839904372358E-006
  0.87800000000000011         -8.8261111060430262E-007
  0.88100000000000001         -3.4313829270988685E-006
  0.88400000000000012         -5.8882825550575749E-006
  0.88700000000000001         -8.2378625249150086E-006
  0.89000000000000012         -1.0466042084840086E-005
  0.89300000000000002         -1.2560115333333085E-005
  0.89600000000000013         -1.4509131990050714E-005
  0.89900000000000002         -1.6303673455665278E-005
  0.90200000000000014         -1.7936076059155551E-005
  0.90500000000000003         -1.9400262622009626E-005
  0.90800000000000014         -2.0691983317722294E-005
  0.91100000000000003         -2.1808625140913358E-005
  0.91400000000000015         -2.2749244829956617E-005
  0.91700000000000004         -2.3514567138741320E-005
  0.92000000000000015         -2.4106776643772022E-005
  0.92300000000000004         -2.4529459686431676E-005
  0.92600000000000016         -2.4787540511351536E-005
  0.92900000000000005         -2.4887179731143330E-005
  0.93200000000000016         -2.4835648638268448E-005
  0.93500000000000005         -2.4641230573883361E-005
  0.93800000000000017         -2.4312972244392206E-005
  0.94100000000000006         -2.3860671641069816E-005
  0.94400000000000017         -2.3294637003892997E-005
  0.94700000000000006         -2.2625568204875696E-005
  0.95000000000000018         -2.1864496512755436E-005
  0.95300000000000007         -2.1022638891783898E-005
  0.95600000000000018         -2.0111235962001814E-005
  0.95900000000000007         -1.9141412575818089E-005
  0.96200000000000019         -1.8124090621793623E-005
  0.96500000000000008         -1.7069864850538673E-005
  0.96800000000000019         -1.5988935307319133E-005
  0.97100000000000009         -1.4891090170434040E-005
  0.97400000000000020         -1.3785612113145968E-005
  0.97700000000000009         -1.2681188401357628E-005
  0.98000000000000020         -1.1585833812815547E-005
  0.98300000000000010         -1.0506878978545526E-005
  0.98600000000000021         -9.4509361019305927E-006
  0.98900000000000010         -8.4239068188795597E-006
  0.99200000000000021         -7.4309831473472137E-006
  0.99500000000000011         -6.4766770498847829E-006
  0.99800000000000022         -5.5647946728317396E-006
   1.0010000000000001         -4.6984345647589146E-006
   1.0040000000000002         -3.8800333865860137E-006
   1.0070000000000001         -3.1114080166125935E-006
   1.0100000000000000         -2.3937691135745509E-006
   1.0130000000000001         -1.7277645852207916E-006
   1.0160000000000000         -1.1135480661147544E-006
   1.0190000000000001         -5.5081234354962588E-007
   1.0220000000000000         -3.8818598188119423E-008
   1.0250000000000001          4.2352433654907622E-007
   1.0280000000000000          8.3764144251264246E-007
   1.0310000000000001          1.2052563369600004E-006
   1.0340000000000000          1.5283461587763493E-006
   1.0370000000000001          1.8090676646115370E-006
   1.0400000000000000          2.0497197593465875E-006
   1.0430000000000001          2.2527051183515515E-006
   1.0460000000000000          2.4204994183907111E-006
   1.0490000000000002          2.5556384626506404E-006
   1.0520000000000000          2.6606893760467564E-006
   1.0550000000000002          2.7382084855061738E-006
   1.0580000000000001          2.7906887632906257E-006
   1.0610000000000002          2.8205544896588372E-006
   1.0640000000000001          2.8301512844838260E-006
   1.0670000000000002          2.8217343713747099E-006
   1.0700000000000001          2.7974899062273207E-006
   1.0730000000000002          2.7595041819076608E-006
   1.0760000000000001          2.7097255853300295E-006
   1.0790000000000002          2.6499442929938233E-006
   1.0820000000000001          2.5818156598803774E-006
   1.0850000000000002          2.5068695644950558E-006
   1.0880000000000001          2.4265174592897601E-006
   1.0910000000000002          2.3420615099507115E-006
   1.0940000000000001          2.2546898186278995E-006
   1.0970000000000002          2.1654397051334136E-006
