 -0.39999999999999997          0.0000000000000000     
 -0.39699999999999996          0.0000000000000000     
 -0.39399999999999996          0.0000000000000000     
 -0.39099999999999996          0.0000000000000000     
 -0.38799999999999996          0.0000000000000000     
 -0.38499999999999995          0.0000000000000000     
 -0.38199999999999995          0.0000000000000000     
 -0.37899999999999995          0.0000000000000000     
 -0.37599999999999995          0.0000000000000000     
 -0.37299999999999994          0.0000000000000000     
 -0.37000000000000000          0.0000000000000000     
 -0.36699999999999999          0.0000000000000000     
 -0.36399999999999999          0.0000000000000000     
 -0.36099999999999999          0.0000000000000000     
 -0.35799999999999998          0.0000000000000000     
 -0.35499999999999998          0.0000000000000000     
 -0.35199999999999998          0.0000000000000000     
 -0.34899999999999998          0.0000000000000000     
 -0.34599999999999997          0.0000000000000000     
 -0.34299999999999997          0.0000000000000000     
 -0.33999999999999997          0.0000000000000000     
 -0.33699999999999997          0.0000000000000000     
 -0.33399999999999996          0.0000000000000000     
 -0.33099999999999996          0.0000000000000000     
 -0.32799999999999996          0.0000000000000000     
 -0.32499999999999996          0.0000000000000000     
 -0.32199999999999995          0.0000000000000000     
 -0.31899999999999995          0.0000000000000000     
 -0.31599999999999995          0.0000000000000000     
 -0.31299999999999994          0.0000000000000000     
 -0.30999999999999994          0.0000000000000000     
 -0.30699999999999994          0.0000000000000000     
 -0.30399999999999994          0.0000000000000000     
 -0.30099999999999993          0.0000000000000000     
 -0.29799999999999993          0.0000000000000000     
 -0.29499999999999998          0.0000000000000000     
 -0.29199999999999998          0.0000000000000000     
 -0.28899999999999998          0.0000000000000000     
 -0.28599999999999998          0.0000000000000000     
 -0.28299999999999997          0.0000000000000000     
 -0.27999999999999997          0.0000000000000000     
 -0.27699999999999997          0.0000000000000000     
 -0.27399999999999997          0.0000000000000000     
 -0.27099999999999996          0.0000000000000000     
 -0.26799999999999996          0.0000000000000000     
 -0.26499999999999996          0.0000000000000000     
 -0.26199999999999996          0.0000000000000000     
 -0.25899999999999995          0.0000000000000000     
 -0.25599999999999995          0.0000000000000000     
 -0.25300000000000000          0.0000000000000000     
 -0.24999999999999997          0.0000000000000000     
 -0.24699999999999997          0.0000000000000000     
 -0.24399999999999997          0.0000000000000000     
 -0.24099999999999996          0.0000000000000000     
 -0.23799999999999996          0.0000000000000000     
 -0.23499999999999996          0.0000000000000000     
 -0.23199999999999996          0.0000000000000000     
 -0.22899999999999995          0.0000000000000000     
 -0.22599999999999995          0.0000000000000000     
 -0.22299999999999998          0.0000000000000000     
 -0.21999999999999997          0.0000000000000000     
 -0.21699999999999997          0.0000000000000000     
 -0.21399999999999997          0.0000000000000000     
 -0.21099999999999997          0.0000000000000000     
 -0.20799999999999996          0.0000000000000000     
 -0.20499999999999996          0.0000000000000000     
 -0.20199999999999996          0.0000000000000000     
 -0.19899999999999995          0.0000000000000000     
 -0.19599999999999995          0.0000000000000000     
 -0.19299999999999995          0.0000000000000000     
 -0.18999999999999997          0.0000000000000000     
 -0.18699999999999997          0.0000000000000000     
 -0.18399999999999997          0.0000000000000000     
 -0.18099999999999997          0.0000000000000000     
 -0.17799999999999996          0.0000000000000000     
 -0.17499999999999996          0.0000000000000000     
 -0.17199999999999996          0.0000000000000000     
 -0.16899999999999996          0.0000000000000000     
 -0.16599999999999995          0.0000000000000000     
 -0.16299999999999995          0.0000000000000000     
 -0.15999999999999998          0.0000000000000000     
 -0.15699999999999997          0.0000000000000000     
 -0.15399999999999997          0.0000000000000000     
 -0.15099999999999997          0.0000000000000000     
 -0.14799999999999996          0.0000000000000000     
 -0.14499999999999996          0.0000000000000000     
 -0.14199999999999996          0.0000000000000000     
 -0.13899999999999996          0.0000000000000000     
 -0.13599999999999995          0.0000000000000000     
 -0.13299999999999995          0.0000000000000000     
 -0.12999999999999995          0.0000000000000000     
 -0.12699999999999995          0.0000000000000000     
 -0.12399999999999994          0.0000000000000000     
 -0.12099999999999994          0.0000000000000000     
 -0.11799999999999994          0.0000000000000000     
 -0.11499999999999994          0.0000000000000000     
 -0.11199999999999993          0.0000000000000000     
 -0.10899999999999999          0.0000000000000000     
 -0.10599999999999998          0.0000000000000000     
 -0.10299999999999998          0.0000000000000000     
  -9.9999999999999978E-002     0.0000000000000000     
  -9.6999999999999975E-002     0.0000000000000000     
  -9.3999999999999972E-002     0.0000000000000000     
  -9.0999999999999970E-002     0.0000000000000000     
  -8.7999999999999967E-002     0.0000000000000000     
  -8.4999999999999964E-002     0.0000000000000000     
  -8.1999999999999962E-002     0.0000000000000000     
  -7.8999999999999959E-002     0.0000000000000000     
  -7.5999999999999956E-002     0.0000000000000000     
  -7.2999999999999954E-002     0.0000000000000000     
  -6.9999999999999951E-002     0.0000000000000000     
  -6.6999999999999948E-002     0.0000000000000000     
  -6.3999999999999946E-002     0.0000000000000000     
  -6.0999999999999943E-002     0.0000000000000000     
  -5.7999999999999940E-002     0.0000000000000000     
  -5.4999999999999938E-002     0.0000000000000000     
  -5.1999999999999935E-002     0.0000000000000000     
  -4.8999999999999932E-002     0.0000000000000000     
  -4.5999999999999985E-002     0.0000000000000000     
  -4.2999999999999983E-002     0.0000000000000000     
  -3.9999999999999980E-002     0.0000000000000000     
  -3.6999999999999977E-002     0.0000000000000000     
  -3.3999999999999975E-002     0.0000000000000000     
  -3.0999999999999972E-002     0.0000000000000000     
  -2.7999999999999969E-002     0.0000000000000000     
  -2.4999999999999967E-002     0.0000000000000000     
  -2.1999999999999964E-002     0.0000000000000000     
  -1.8999999999999961E-002     0.0000000000000000     
  -1.5999999999999959E-002     0.0000000000000000     
  -1.2999999999999956E-002     0.0000000000000000     
  -9.9999999999999534E-003     0.0000000000000000     
  -6.9999999999999507E-003     0.0000000000000000     
  -3.9999999999999480E-003     0.0000000000000000     
  -9.9999999999994538E-004     0.0000000000000000     
   2.0000000000000573E-003     0.0000000000000000     
   5.0000000000000600E-003     0.0000000000000000     
   8.0000000000000626E-003     0.0000000000000000     
   1.1000000000000065E-002     0.0000000000000000     
   1.4000000000000068E-002     0.0000000000000000     
   1.7000000000000015E-002     0.0000000000000000     
   2.0000000000000018E-002     0.0000000000000000     
   2.3000000000000020E-002     0.0000000000000000     
   2.6000000000000023E-002     0.0000000000000000     
   2.9000000000000026E-002     0.0000000000000000     
   3.2000000000000028E-002     0.0000000000000000     
   3.5000000000000031E-002     0.0000000000000000     
   3.8000000000000034E-002     0.0000000000000000     
   4.1000000000000036E-002     0.0000000000000000     
   4.4000000000000039E-002     0.0000000000000000     
   4.7000000000000042E-002     0.0000000000000000     
   5.0000000000000044E-002     0.0000000000000000     
   5.3000000000000047E-002     0.0000000000000000     
   5.6000000000000050E-002     0.0000000000000000     
   5.9000000000000052E-002     0.0000000000000000     
   6.2000000000000055E-002     0.0000000000000000     
   6.5000000000000058E-002     0.0000000000000000     
   6.8000000000000060E-002     0.0000000000000000     
   7.1000000000000063E-002     0.0000000000000000     
   7.4000000000000066E-002     0.0000000000000000     
   7.7000000000000068E-002     0.0000000000000000     
   8.0000000000000016E-002     0.0000000000000000     
   8.3000000000000018E-002     0.0000000000000000     
   8.6000000000000021E-002     0.0000000000000000     
   8.9000000000000024E-002     0.0000000000000000     
   9.2000000000000026E-002     0.0000000000000000     
   9.5000000000000029E-002     0.0000000000000000     
   9.8000000000000032E-002     0.0000000000000000     
  0.10100000000000003          0.0000000000000000     
  0.10400000000000004          0.0000000000000000     
  0.10700000000000004          0.0000000000000000     
  0.11000000000000004          0.0000000000000000     
  0.11300000000000004          0.0000000000000000     
  0.11600000000000005          0.0000000000000000     
  0.11900000000000005          0.0000000000000000     
  0.12200000000000005          0.0000000000000000     
  0.12500000000000006          0.0000000000000000     
  0.12800000000000006          0.0000000000000000     
  0.13100000000000006          0.0000000000000000     
  0.13400000000000006          0.0000000000000000     
  0.13700000000000007          0.0000000000000000     
  0.14000000000000007          0.0000000000000000     
  0.14300000000000007          0.0000000000000000     
  0.14600000000000007          0.0000000000000000     
  0.14900000000000008          0.0000000000000000     
  0.15200000000000008          0.0000000000000000     
  0.15500000000000008          0.0000000000000000     
  0.15800000000000008          0.0000000000000000     
  0.16100000000000009          0.0000000000000000     
  0.16400000000000009          0.0000000000000000     
  0.16700000000000009          0.0000000000000000     
  0.17000000000000010          0.0000000000000000     
  0.17300000000000010          0.0000000000000000     
  0.17600000000000010          0.0000000000000000     
  0.17899999999999999          0.0000000000000000     
  0.18200000000000000          0.0000000000000000     
  0.18500000000000000          0.0000000000000000     
  0.18800000000000000          0.0000000000000000     
  0.19100000000000000          0.0000000000000000     
  0.19400000000000001          0.0000000000000000     
  0.19700000000000001          0.0000000000000000     
  0.20000000000000001          0.0000000000000000     
  0.20300000000000001          0.0000000000000000     
  0.20600000000000002          0.0000000000000000     
  0.20900000000000002          0.0000000000000000     
  0.21200000000000002          0.0000000000000000     
  0.21500000000000002          0.0000000000000000     
  0.21800000000000003          0.0000000000000000     
  0.22100000000000003          0.0000000000000000     
  0.22400000000000003          0.0000000000000000     
  0.22700000000000004          0.0000000000000000     
  0.23000000000000004          0.0000000000000000     
  0.23300000000000004          0.0000000000000000     
  0.23600000000000004          0.0000000000000000     
  0.23900000000000005          0.0000000000000000     
  0.24200000000000005          0.0000000000000000     
  0.24500000000000005          0.0000000000000000     
  0.24800000000000005          0.0000000000000000     
  0.25100000000000006          0.0000000000000000     
  0.25400000000000006          0.0000000000000000     
  0.25700000000000006          0.0000000000000000     
  0.26000000000000006          0.0000000000000000     
  0.26300000000000007          0.0000000000000000     
  0.26600000000000007          0.0000000000000000     
  0.26900000000000007          0.0000000000000000     
  0.27200000000000008          0.0000000000000000     
  0.27500000000000008          0.0000000000000000     
  0.27800000000000008          0.0000000000000000     
  0.28100000000000008          0.0000000000000000     
  0.28400000000000009          0.0000000000000000     
  0.28700000000000009          0.0000000000000000     
  0.29000000000000009          0.0000000000000000     
  0.29300000000000009          0.0000000000000000     
  0.29600000000000010          0.0000000000000000     
  0.29900000000000010          0.0000000000000000     
  0.30200000000000010          0.0000000000000000     
  0.30499999999999999          0.0000000000000000     
  0.30800000000000000          0.0000000000000000     
  0.31100000000000000          0.0000000000000000     
  0.31400000000000000          0.0000000000000000     
  0.31700000000000000          0.0000000000000000     
  0.32000000000000001          0.0000000000000000     
  0.32300000000000001          0.0000000000000000     
  0.32600000000000001          0.0000000000000000     
  0.32900000000000001          0.0000000000000000     
  0.33200000000000002          0.0000000000000000     
  0.33500000000000002          0.0000000000000000     
  0.33800000000000002          0.0000000000000000     
  0.34100000000000003          0.0000000000000000     
  0.34400000000000003          0.0000000000000000     
  0.34700000000000003          0.0000000000000000     
  0.35000000000000003          0.0000000000000000     
  0.35300000000000004          0.0000000000000000     
  0.35600000000000004          0.0000000000000000     
  0.35900000000000004          0.0000000000000000     
  0.36200000000000004          0.0000000000000000     
  0.36500000000000005          0.0000000000000000     
  0.36800000000000005          0.0000000000000000     
  0.37100000000000005          0.0000000000000000     
  0.37400000000000005          0.0000000000000000     
  0.37700000000000006          0.0000000000000000     
  0.38000000000000006          0.0000000000000000     
  0.38300000000000006          0.0000000000000000     
  0.38600000000000007          0.0000000000000000     
  0.38900000000000007          0.0000000000000000     
  0.39200000000000007          0.0000000000000000     
  0.39500000000000007          0.0000000000000000     
  0.39800000000000008          0.0000000000000000     
  0.40100000000000008          0.0000000000000000     
  0.40400000000000008          3.2214423001200636E-041
  0.40700000000000008         -3.5676794232442178E-041
  0.41000000000000009         -7.6226059382486167E-041
  0.41300000000000009          7.0517298125588905E-041
  0.41600000000000009          1.3648767467725932E-040
  0.41900000000000009         -3.5362674605670209E-040
  0.42200000000000010         -5.5138264009512427E-039
  0.42500000000000010         -7.1968224208223273E-039
  0.42800000000000010         -7.3569549261733752E-039
  0.43100000000000011         -4.2281648256266711E-039
  0.43400000000000000          1.8315188247368617E-039
  0.43700000000000000          2.1263330368007413E-039
  0.44000000000000000          1.6335703755896441E-038
  0.44300000000000000          3.4790802520712824E-038
  0.44600000000000001          3.7788583764469520E-038
  0.44900000000000001          5.0632068496434692E-038
  0.45200000000000001          3.8694606850180872E-038
  0.45500000000000002          4.4193127372794875E-039
  0.45800000000000002         -5.3681092694602444E-038
  0.46100000000000002         -1.2867748671655046E-037
  0.46400000000000002         -2.0377571027949883E-037
  0.46700000000000003         -2.5061057190352460E-037
  0.47000000000000003         -2.3191073097191048E-037
  0.47300000000000003         -1.1574588646905818E-037
  0.47600000000000003          1.1557979447014779E-037
  0.47900000000000004          4.4715892515319689E-037
  0.48200000000000004          8.2030901023487837E-037
  0.48500000000000004          1.1274820419890972E-036
  0.48800000000000004          1.2209875237543189E-036
  0.49100000000000005          9.4246348704240218E-037
  0.49400000000000005          1.7210440076741025E-037
  0.49700000000000005         -1.1120061743437999E-036
  0.50000000000000000         -2.7684930924156940E-036
  0.50300000000000011         -4.4517113514522535E-036
  0.50600000000000001         -5.6146373413359374E-036
  0.50900000000000012         -5.5787820679276053E-036
  0.51200000000000001         -3.6845491700656440E-036
  0.51500000000000012          4.8454762198414489E-037
  0.51800000000000002          6.8379996050178267E-036
  0.52100000000000013          1.4538400877876221E-035
  0.52400000000000002          2.1872698198985781E-035
  0.52700000000000014          2.6330713265540368E-035
  0.53000000000000003          2.4971512207381887E-035
  0.53300000000000014          1.5109315246815465E-035
  0.53600000000000003         -4.7332701703863924E-036
  0.53900000000000015         -3.3760661539343806E-035
  0.54200000000000004         -6.7992350055934088E-035
  0.54500000000000015         -9.9850036416778908E-035
  0.54800000000000004         -1.1860842221882062E-034
  0.55100000000000016         -1.1199024855552636E-034
  0.55400000000000005         -6.8989251669054508E-035
  0.55700000000000016          1.6314611507079900E-035
  0.56000000000000005          1.4056995923070530E-034
  0.56299999999999994          2.8762311876256924E-034
  0.56600000000000006          4.2693602234137371E-034
  0.56899999999999995          5.1530626077552918E-034
  0.57200000000000006          5.0292261149232008E-034
  0.57499999999999996          3.4406057125480018E-034
  0.57800000000000007          1.1595338637676659E-035
  0.58099999999999996         -4.8691191883277706E-034
  0.58400000000000007         -1.0951885889349268E-033
  0.58699999999999997         -1.7009833823921821E-033
  0.59000000000000008         -2.1404694794465758E-033
  0.59299999999999997         -2.2183094879359461E-033
  0.59600000000000009         -1.7449273137135196E-033
  0.59899999999999998         -5.8875656523350800E-034
  0.60200000000000009          1.2636579046218392E-033
  0.60500000000000020          3.6517568052932875E-033
  0.60800000000000010          6.2053844179529661E-033
  0.61100000000000021          8.3471623855096863E-033
  0.61400000000000010          9.3482582853544803E-033
  0.61700000000000021          8.4457457125827291E-033
  0.62000000000000011          5.0183347660085299E-033
  0.62300000000000022         -1.1991839067433009E-033
  0.62600000000000011         -9.8992417916927506E-033
  0.62900000000000000         -2.0034580010226446E-032
  0.63200000000000012         -2.9761559951593330E-032
  0.63500000000000001         -3.6552146096982511E-032
  0.63800000000000012         -3.7514988164402712E-032
  0.64100000000000001         -2.9933343985620237E-032
  0.64400000000000013         -1.1978256691553277E-032
  0.64700000000000002          1.6499943754867135E-032
  0.65000000000000013          5.3256617488659126E-032
  0.65300000000000002          9.3207289955921408E-032
  0.65600000000000014          1.2846034793063832E-031
  0.65900000000000003          1.4900281522306097E-031
  0.66200000000000014          1.4413322813270157E-031
  0.66500000000000004          1.0460414114257704E-031
  0.66800000000000015          2.5262805360354201E-032
  0.67100000000000004         -9.2211480567965984E-032
  0.67400000000000015         -2.3703564323340330E-031
  0.67700000000000005         -3.8819424999650748E-031
  0.68000000000000016         -5.1511725215594700E-031
  0.68300000000000005         -5.8067697538133887E-031
  0.68600000000000017         -5.4670893359385893E-031
  0.68900000000000006         -3.8179000601775002E-031
  0.69200000000000017         -7.0435600010084115E-032
  0.69500000000000006          3.7771884000276537E-031
  0.69800000000000018          9.2066864129361883E-031
  0.70100000000000007          1.4809272468944490E-030
  0.70400000000000018          1.9486402698176748E-030
  0.70700000000000007          2.1924479937899158E-030
  0.71000000000000019          2.0786074889140931E-030
  0.71300000000000008          1.4972961274977007E-030
  0.71600000000000019          3.9331797354850910E-031
  0.71900000000000008         -1.2034701277884055E-030
  0.72200000000000020         -3.1541394294149471E-030
  0.72500000000000009         -5.1999442272193200E-030
  0.72800000000000020         -6.9714977699107523E-030
  0.73100000000000009         -8.0226001738798329E-030
  0.73400000000000021         -7.8904468683379753E-030
  0.73700000000000010         -6.1791806851821788E-030
  0.74000000000000021         -2.6586599196569811E-030
  0.74300000000000010          2.6355032160853412E-030
  0.74600000000000022          9.3191715056068956E-030
  0.74900000000000011          1.6614975084839994E-029
  0.75200000000000022          2.3366394981594451E-029
  0.75500000000000012          2.8126783092323434E-029
  0.75800000000000001          2.9330314465037828E-029
  0.76100000000000012          2.5539924190989401E-029
  0.76400000000000001          1.5751244139213384E-029
  0.76700000000000013         -2.8534060076300056E-031
  0.77000000000000002         -2.1775903740785835E-029
  0.77300000000000013         -4.6688621773491920E-029
  0.77600000000000002         -7.1719441758298816E-029
  0.77900000000000014         -9.2468702354622330E-029
  0.78200000000000003         -1.0386600231320076E-028
  0.78500000000000014         -1.0084101733524806E-028
  0.78800000000000003         -7.9201611703933352E-029
  0.79100000000000015         -3.6628351488093164E-029
  0.79400000000000004          2.6346974699023808E-029
  0.79700000000000015          1.0555019885143340E-028
  0.80000000000000004          1.9274607765611629E-028
  0.80300000000000016          2.7577513558439395E-028
  0.80600000000000005          3.3938147708119746E-028
  0.80900000000000016          3.6679698899903363E-028
  0.81200000000000006          3.4204260452321717E-028
  0.81500000000000017          2.5277991507312294E-028
  0.81800000000000006          9.3405587703108964E-029
  0.82100000000000017         -1.3202814615619323E-028
  0.82400000000000007         -4.0758872071833570E-028
  0.82700000000000018         -7.0448585095578022E-028
  0.83000000000000007         -9.8183232218748482E-028
  0.83300000000000018         -1.1895274484271092E-027
  0.83600000000000008         -1.2734036046244151E-027
  0.83900000000000019         -1.1824681904774936E-027
  0.84200000000000008         -8.7772142323795402E-028
  0.84500000000000020         -3.4164371836316835E-028
  0.84800000000000009          4.1291548717173561E-028
  0.85100000000000020          1.3359279979711611E-027
  0.85400000000000009          2.3370535800441160E-027
  0.85700000000000021          3.2876591827870460E-027
  0.86000000000000010          4.0290897803833402E-027
  0.86300000000000021          4.3876974603547851E-027
  0.86600000000000010          4.1962256735596518E-027
  0.86900000000000022          3.3202122881230134E-027
  0.87200000000000011          1.6869181522380168E-027
  0.87500000000000022         -6.8660766710329274E-028
  0.87800000000000011         -3.6708217772713782E-027
  0.88100000000000001         -7.0106012726967377E-027
  0.88400000000000012         -1.0326541226879586E-026
  0.88700000000000001         -1.3134222773898729E-026
  0.89000000000000012         -1.4883466010148647E-026
  0.89300000000000002         -1.5017503472480535E-026
  0.89600000000000013         -1.3049253347810989E-026
  0.89900000000000002         -8.6486129523847054E-027
  0.90200000000000014         -1.7318251824982996E-027
  0.90500000000000003          7.4587809429898929E-027
  0.90800000000000014          1.8297933635086508E-026
  0.91100000000000003          2.9757519773882042E-026
  0.91400000000000015          4.0435520325118359E-026
  0.91700000000000004          4.8643510441649622E-026
  0.92000000000000015          5.2556021069637111E-026
  0.92300000000000004          5.0417945774601239E-026
  0.92600000000000016          4.0799078352889718E-026
  0.92900000000000005          2.2873404035280895E-026
  0.93200000000000016         -3.3067358541332931E-027
  0.93500000000000005         -3.6577693170620086E-026
  0.93800000000000017         -7.4515536551025074E-026
  0.94100000000000006         -1.1341076884424588E-025
  0.94400000000000017         -1.4840279476908490E-025
  0.94700000000000006         -1.7380058914497084E-025
  0.95000000000000018         -1.8359319733980020E-025
  0.95300000000000007         -1.7213760673748812E-025
  0.95600000000000018         -1.3498261663551583E-025
  0.95900000000000007         -6.9758678945798886E-026
  0.96200000000000019          2.2961110184230643E-026
  0.96500000000000008          1.3894208985651032E-025
  0.96800000000000019          2.6984038236978271E-025
  0.97100000000000009          4.0315206085841266E-025
  0.97400000000000020          5.2266794031243542E-025
  0.97700000000000009          6.0950604242588190E-025
  0.98000000000000020          6.4374631578733344E-025
  0.98300000000000010          6.0662244315041143E-025
  0.98600000000000021          4.8314448567456008E-025
  0.98900000000000010          2.6494097083997091E-025
  0.99200000000000021         -4.6956354607470134E-026
  0.99500000000000011         -4.3975347594543113E-025
  0.99800000000000022         -8.8733401219734298E-025
   1.0010000000000001         -1.3499173517863849E-024
   1.0040000000000002         -1.7752412793602752E-024
   1.0070000000000001         -2.1015697638037926E-024
   1.0100000000000000         -2.2625912341109893E-024
   1.0130000000000001         -2.1941248470970305E-024
   1.0160000000000000         -1.8423114012709075E-024
   1.0190000000000001         -1.1726920726576312E-024
   1.0220000000000000         -1.7932268662732749E-025
   1.0250000000000001          1.1070555784256745E-024
   1.0280000000000000          2.6131138094426214E-024
   1.0310000000000001          4.2203933699289494E-024
   1.0340000000000000          5.7673795646092268E-024
   1.0370000000000001          7.0570218808681556E-024
   1.0400000000000000          7.8703367861726095E-024
   1.0430000000000001          7.9858933095988044E-024
   1.0460000000000000          7.2045441543758314E-024
   1.0490000000000002          5.3779752221238046E-024
   1.0520000000000000          2.4385724738902649E-024
   1.0550000000000002         -1.5721432460792688E-024
   1.0580000000000001         -6.4801934729761910E-024
   1.0610000000000002         -1.1964850463482131E-023
   1.0640000000000001         -1.7557111201078277E-023
   1.0670000000000002         -2.2654231798486074E-023
   1.0700000000000001         -2.6552841899143168E-023
   1.0730000000000002         -2.8501453892877043E-023
   1.0760000000000001         -2.7771266976019833E-023
   1.0790000000000002         -2.3742408776923006E-023
   1.0820000000000001         -1.5999648383420631E-023
   1.0850000000000002         -4.4296409447557922E-024
   1.0880000000000001          1.0690253965262831E-023
   1.0910000000000002          2.8624140597039372E-023
   1.0940000000000001          4.8140831273438574E-023
   1.0970000000000002          6.7523088075706124E-023
