 -0.39999999999999997          0.0000000000000000     
 -0.39699999999999996          0.0000000000000000     
 -0.39399999999999996          0.0000000000000000     
 -0.39099999999999996          0.0000000000000000     
 -0.38799999999999996          0.0000000000000000     
 -0.38499999999999995          0.0000000000000000     
 -0.38199999999999995          0.0000000000000000     
 -0.37899999999999995          0.0000000000000000     
 -0.37599999999999995          0.0000000000000000     
 -0.37299999999999994          0.0000000000000000     
 -0.37000000000000000          0.0000000000000000     
 -0.36699999999999999          0.0000000000000000     
 -0.36399999999999999          0.0000000000000000     
 -0.36099999999999999          0.0000000000000000     
 -0.35799999999999998          0.0000000000000000     
 -0.35499999999999998          0.0000000000000000     
 -0.35199999999999998          0.0000000000000000     
 -0.34899999999999998          0.0000000000000000     
 -0.34599999999999997          0.0000000000000000     
 -0.34299999999999997          0.0000000000000000     
 -0.33999999999999997          0.0000000000000000     
 -0.33699999999999997          0.0000000000000000     
 -0.33399999999999996          0.0000000000000000     
 -0.33099999999999996          0.0000000000000000     
 -0.32799999999999996          0.0000000000000000     
 -0.32499999999999996          0.0000000000000000     
 -0.32199999999999995          0.0000000000000000     
 -0.31899999999999995          0.0000000000000000     
 -0.31599999999999995          0.0000000000000000     
 -0.31299999999999994          0.0000000000000000     
 -0.30999999999999994          0.0000000000000000     
 -0.30699999999999994          0.0000000000000000     
 -0.30399999999999994          0.0000000000000000     
 -0.30099999999999993          0.0000000000000000     
 -0.29799999999999993          0.0000000000000000     
 -0.29499999999999998          0.0000000000000000     
 -0.29199999999999998          0.0000000000000000     
 -0.28899999999999998          0.0000000000000000     
 -0.28599999999999998          0.0000000000000000     
 -0.28299999999999997          0.0000000000000000     
 -0.27999999999999997          0.0000000000000000     
 -0.27699999999999997          0.0000000000000000     
 -0.27399999999999997          0.0000000000000000     
 -0.27099999999999996          0.0000000000000000     
 -0.26799999999999996          0.0000000000000000     
 -0.26499999999999996          0.0000000000000000     
 -0.26199999999999996          0.0000000000000000     
 -0.25899999999999995          0.0000000000000000     
 -0.25599999999999995          0.0000000000000000     
 -0.25300000000000000          0.0000000000000000     
 -0.24999999999999997          0.0000000000000000     
 -0.24699999999999997          0.0000000000000000     
 -0.24399999999999997          0.0000000000000000     
 -0.24099999999999996          0.0000000000000000     
 -0.23799999999999996          0.0000000000000000     
 -0.23499999999999996          0.0000000000000000     
 -0.23199999999999996          0.0000000000000000     
 -0.22899999999999995          0.0000000000000000     
 -0.22599999999999995         -8.0787515482548804E-042
 -0.22299999999999998          7.3944340499080617E-042
 -0.21999999999999997          9.1370864657748359E-042
 -0.21699999999999997         -1.0658641427817778E-040
 -0.21399999999999997          1.8371443173311533E-041
 -0.21099999999999997          3.2857460203126654E-040
 -0.20799999999999996          8.3610697275416690E-040
 -0.20499999999999996         -3.5478787320867318E-040
 -0.20199999999999996         -4.4122220736790164E-039
 -0.19899999999999995          6.8212650625370268E-039
 -0.19599999999999995         -3.2733532375192843E-039
 -0.19299999999999995         -1.4803767670524315E-039
 -0.18999999999999997          1.0597601502886999E-038
 -0.18699999999999997          5.1170567187574520E-039
 -0.18399999999999997         -3.2211488823250129E-038
 -0.18099999999999997         -2.0447881392162856E-038
 -0.17799999999999996          8.5254847486376117E-038
 -0.17499999999999996          7.8737207930298614E-038
 -0.17199999999999996         -1.8619417394672800E-037
 -0.16899999999999996         -2.6667630106810333E-037
 -0.16599999999999995          2.7756511346205114E-037
 -0.16299999999999995          7.5381261085069843E-037
 -0.15999999999999998          5.3532707340067467E-038
 -0.15699999999999997         -1.5746263617507990E-036
 -0.15399999999999997         -2.2316866604336889E-036
 -0.15099999999999997          1.2838035040689667E-036
 -0.14799999999999996          9.2027915657585687E-036
 -0.14499999999999996          7.5183332890293290E-036
 -0.14199999999999996         -2.1723921855684682E-035
 -0.13899999999999996         -4.6617402895452874E-035
 -0.13599999999999995          1.7091697671065451E-035
 -0.13299999999999995          1.4970278593499202E-034
 -0.12999999999999995          1.1017149303515700E-034
 -0.12699999999999995         -2.7765329326670793E-034
 -0.12399999999999994         -6.1095855065343850E-034
 -0.12099999999999994         -1.0796518377371753E-035
 -0.11799999999999994          1.6240747029866850E-033
 -0.11499999999999994          2.1567317053525416E-033
 -0.11199999999999993         -1.6287331911321831E-033
 -0.10899999999999999         -8.1607909031926691E-033
 -0.10599999999999998         -6.3117063410485321E-033
 -0.10299999999999998          1.4037450131470066E-032
  -9.9999999999999978E-002     3.5754067373309729E-032
  -9.6999999999999975E-002     1.0226152789789484E-032
  -9.3999999999999972E-002    -8.1143708247258667E-032
  -9.0999999999999970E-002    -1.3859788379869468E-031
  -8.7999999999999967E-002     2.0386265077682896E-032
  -8.4999999999999964E-002     3.9349698082369113E-031
  -8.1999999999999962E-002     5.0848802372892450E-031
  -7.8999999999999959E-002    -2.9983888815746901E-031
  -7.5999999999999956E-002    -1.7637692156696763E-030
  -7.2999999999999954E-002    -1.7923141240370656E-030
  -6.9999999999999951E-002     1.9334139559573205E-030
  -6.6999999999999948E-002     7.4692429373987414E-030
  -6.3999999999999946E-002     6.1687572327719559E-030
  -6.0999999999999943E-002    -9.7828122338375328E-030
  -5.7999999999999940E-002    -3.0441478666530491E-029
  -5.4999999999999938E-002    -2.1597271876680584E-029
  -5.1999999999999935E-002     4.3579888170394874E-029
  -4.8999999999999932E-002     1.2134043527409877E-028
  -4.5999999999999985E-002     7.9271399357881528E-029
  -4.2999999999999983E-002    -1.7807304619478027E-028
  -3.9999999999999980E-002    -4.7529029504284084E-028
  -3.6999999999999977E-002    -3.1051055645296629E-028
  -3.3999999999999975E-002     6.7337410815807036E-028
  -3.0999999999999972E-002     1.8309232344822183E-027
  -2.7999999999999969E-002     1.2956239795238154E-027
  -2.4999999999999967E-002    -2.3453322727152447E-027
  -2.1999999999999964E-002    -6.9147297227471817E-027
  -1.8999999999999961E-002    -5.6110051179435741E-027
  -1.5999999999999959E-002     7.3498908706714314E-027
  -1.2999999999999956E-002     2.5386820983499462E-026
  -9.9999999999999534E-003     2.4420614040540443E-026
  -6.9999999999999507E-003    -1.9395256279440784E-026
  -3.9999999999999480E-003    -8.9461991703708387E-026
  -9.9999999999994538E-004    -1.0393849627931313E-025
   2.0000000000000573E-003     3.3769598079015181E-026
   5.0000000000000600E-003     2.9707588219862719E-025
   8.0000000000000626E-003     4.2354540820687702E-025
   1.1000000000000065E-002     3.6851645650005640E-026
   1.4000000000000068E-002    -9.0294647963122443E-025
   1.7000000000000015E-002    -1.6239038983173453E-024
   2.0000000000000018E-002    -7.4073658112094087E-025
   2.3000000000000020E-002     2.3773668950583760E-024
   2.6000000000000023E-002     5.7540196503939084E-024
   2.9000000000000026E-002     4.6572387222937956E-024
   3.2000000000000028E-002    -4.6673235011644954E-024
   3.5000000000000031E-002    -1.8387374092860016E-023
   3.8000000000000034E-002    -2.1856309162372147E-023
   4.1000000000000036E-002     1.8680505577515833E-024
   4.4000000000000039E-002     5.0745122186443317E-023
   4.7000000000000042E-002     8.5324600481742617E-023
   5.0000000000000044E-002     4.1589259132921968E-023
   5.3000000000000047E-002    -1.0884420619469496E-022
   5.6000000000000050E-002    -2.8177506058973326E-022
   5.9000000000000052E-002    -2.7131113059386039E-022
   6.2000000000000055E-002     1.0896906844317814E-022
   6.5000000000000058E-002     7.6329284251405819E-022
   6.8000000000000060E-002     1.1426116538311349E-021
   7.1000000000000063E-002     4.7380526147893743E-022
   7.4000000000000066E-002    -1.5002064208452036E-021
   7.7000000000000068E-002    -3.6826785583473023E-021
   8.0000000000000016E-002    -3.6150776038877275E-021
   8.3000000000000018E-002     8.9743645599260485E-022
   8.6000000000000021E-002     8.9169790445131225E-021
   8.9000000000000024E-002     1.4468614081001509E-020
   9.2000000000000026E-002     8.6947371348345058E-021
   9.5000000000000029E-002    -1.2710526703505123E-020
   9.8000000000000032E-002    -4.0443971835019720E-020
  0.10100000000000003         -4.9554812629197573E-020
  0.10400000000000004         -1.2762236072488087E-020
  0.10700000000000004          7.2119700615775471E-020
  0.11000000000000004          1.5797903918834892E-019
  0.11300000000000004          1.5550752611867621E-019
  0.11600000000000005         -1.0198289244571188E-020
  0.11900000000000005         -3.1147556077861261E-019
  0.12200000000000005         -5.6188659141125835E-019
  0.12500000000000006         -4.7213140492027403E-019
  0.12800000000000006          1.5107562462086958E-019
  0.13100000000000006          1.1465594940211572E-018
  0.13400000000000006          1.8796744222665302E-018
  0.13700000000000007          1.4719545514848323E-018
  0.14000000000000007         -5.8504292653249967E-019
  0.14300000000000007         -3.7150615948537006E-018
  0.14600000000000007         -5.9976087354575075E-018
  0.14900000000000008         -4.8809885032169993E-018
  0.15200000000000008          1.1144862825516988E-018
  0.15500000000000008          1.0491908715965805E-017
  0.15800000000000008          1.8081536905994625E-017
  0.16100000000000009          1.6800275654020297E-017
  0.16400000000000009          1.8930793415340970E-018
  0.16700000000000009         -2.4179478243650080E-017
  0.17000000000000010         -4.9447285875531762E-017
  0.17300000000000010         -5.5673786615307356E-017
  0.17600000000000010         -2.7559569018915314E-017
  0.17899999999999999          3.5555279241777655E-017
  0.18200000000000000          1.1207593832448131E-016
  0.18500000000000000          1.6120945855695874E-016
  0.18800000000000000          1.3908631029685322E-016
  0.19100000000000000          2.3263062648110457E-017
  0.19400000000000001         -1.6556524068453387E-016
  0.19700000000000001         -3.5772156042819877E-016
  0.20000000000000001         -4.5277900658851384E-016
  0.20300000000000001         -3.5963180433409037E-016
  0.20600000000000002         -4.4593940604427475E-017
  0.20900000000000002          4.3333867985230266E-016
  0.21200000000000002          9.1941861515933147E-016
  0.21500000000000002          1.2012272339002550E-015
  0.21800000000000003          1.0811398640808967E-015
  0.22100000000000003          4.6127601290184042E-016
  0.22400000000000003         -5.8966590081360661E-016
  0.22700000000000004         -1.8168188524178977E-015
  0.23000000000000004         -2.8237106802961330E-015
  0.23300000000000004         -3.1777173742250786E-015
  0.23600000000000004         -2.5507602823160234E-015
  0.23900000000000005         -8.5268864695997334E-016
  0.24200000000000005          1.6891984623975291E-015
  0.24500000000000005          4.5382372897616842E-015
  0.24800000000000005          6.9507602768894900E-015
  0.25100000000000006          8.1477450737531280E-015
  0.25400000000000006          7.5079181560520985E-015
  0.25700000000000006          4.7307589251366265E-015
  0.26000000000000006         -6.5753472289390408E-017
  0.26300000000000007         -6.3215071383548008E-015
  0.26600000000000007         -1.3072983189625281E-014
  0.26900000000000007         -1.9039015534468820E-014
  0.27200000000000008         -2.2751239151183137E-014
  0.27500000000000008         -2.2742196171503474E-014
  0.27800000000000008         -1.7804945568017815E-014
  0.28100000000000008         -7.3148071078645882E-015
  0.28400000000000009          8.4361767151307028E-015
  0.28700000000000009          2.7978704253217817E-014
  0.29000000000000009          4.8578920220526102E-014
  0.29300000000000009          6.6402890654107783E-014
  0.29600000000000010          7.6962548951037710E-014
  0.29900000000000010          7.5813808078381829E-014
  0.30200000000000010          5.9424453369635861E-014
  0.30499999999999999          2.6088710564265451E-014
  0.30800000000000000         -2.3261947881829516E-014
  0.31100000000000000         -8.4516669160231675E-014
  0.31400000000000000         -1.5027180004027326E-013
  0.31700000000000000         -2.1026951950736453E-013
  0.32000000000000001         -2.5243725758287919E-013
  0.32300000000000001         -2.6447102141587025E-013
  0.32600000000000001         -2.3579557619098669E-013
  0.32900000000000001         -1.5964421210612205E-013
  0.33200000000000002         -3.4956170968843224E-014
  0.33500000000000002          1.3220884752205915E-013
  0.33800000000000002          3.2800133278585183E-013
  0.34100000000000003          5.3105558162237389E-013
  0.34400000000000003          7.1381960224006695E-013
  0.34700000000000003          8.4494811595018555E-013
  0.35000000000000003          8.9264568516166035E-013
  0.35300000000000004          8.2871333500221406E-013
  0.35600000000000004          6.3293536187527969E-013
  0.35900000000000004          2.9735475178046381E-013
  0.36200000000000004         -1.7006700384301366E-013
  0.36500000000000005         -7.4292606590593202E-013
  0.36800000000000005         -1.3754911144304251E-012
  0.37100000000000005         -2.0038879235237830E-012
  0.37400000000000005         -2.5496530894531260E-012
  0.37700000000000006         -2.9257431812032704E-012
  0.38000000000000006         -3.0447824441181538E-012
  0.38300000000000006         -2.8290326160276894E-012
  0.38600000000000007         -2.2212244138759005E-012
  0.38900000000000007         -1.1951959365931896E-012
  0.39200000000000007          2.3489639670916097E-013
  0.39500000000000007          2.0080201077431301E-012
  0.39800000000000008          4.0135196836038798E-012
  0.40100000000000008          6.0930784917641311E-012
  0.40400000000000008          8.0479667220588032E-012
  0.40700000000000008          9.6516715282527180E-012
  0.41000000000000009          1.0667466251398030E-011
  0.41300000000000009          1.0869941201831525E-011
  0.41600000000000009          1.0069082651069237E-011
  0.41900000000000009          8.1350121765821713E-012
  0.42200000000000010          5.0213618319063678E-012
  0.42500000000000010          7.8499010658806820E-013
  0.42800000000000010         -4.4001463912111441E-012
  0.43100000000000011         -1.0236971581070367E-011
  0.43400000000000000         -1.6308781959437849E-011
  0.43700000000000000         -2.2093243316307445E-011
  0.44000000000000000         -2.6987301868902014E-011
  0.44300000000000000         -3.0342572384533125E-011
  0.44600000000000001         -3.1509991381134141E-011
  0.44900000000000001         -2.9891837650895790E-011
  0.45200000000000001         -2.4998215807356352E-011
  0.45500000000000002         -1.6505014952574958E-011
  0.45800000000000002         -4.3090942249197948E-012
  0.46100000000000002          1.1422730008480433E-011
  0.46400000000000002          3.0215015479878542E-011
  0.46700000000000003          5.1257984397781552E-011
  0.47000000000000003          7.3397348205950751E-011
  0.47300000000000003          9.5140239930289590E-011
  0.47600000000000003          1.1467740142960489E-010
  0.47900000000000004          1.2991993635962821E-010
  0.48200000000000004          1.3854690281255077E-010
  0.48500000000000004          1.3806086185997087E-010
  0.48800000000000004          1.2584427147729106E-010
  0.49100000000000005          9.9211534597973601E-011
  0.49400000000000005          5.5449397903047377E-011
  0.49700000000000005         -8.1608479000479142E-012
  0.50000000000000000         -9.4345958912316105E-011
  0.50300000000000011         -2.0587288772769731E-010
  0.50600000000000001         -3.4561863303309283E-010
  0.50900000000000012         -5.1667682459815373E-010
  0.51200000000000001         -7.2250766836529629E-010
  0.51500000000000012         -9.6712844893218352E-010
  0.51800000000000002         -1.2553517076540792E-009
  0.52100000000000013         -1.5930551937761297E-009
  0.52400000000000002         -1.9875008755042508E-009
  0.52700000000000014         -2.4476750725542367E-009
  0.53000000000000003         -2.9846726607998138E-009
  0.53300000000000014         -3.6121010396514390E-009
  0.53600000000000003         -4.3465077680537324E-009
  0.53900000000000015         -5.2078358338964999E-009
  0.54200000000000004         -6.2198981469096311E-009
  0.54500000000000015         -7.4108723969633621E-009
  0.54800000000000004         -8.8138310065595070E-009
  0.55100000000000016         -1.0467290260195439E-008
  0.55400000000000005         -1.2415800747172608E-008
  0.55700000000000016         -1.4710606959205448E-008
  0.56000000000000005         -1.7410353632683695E-008
  0.56299999999999994         -2.0581854265393635E-008
  0.56600000000000006         -2.4300960499522700E-008
  0.56899999999999995         -2.8653500350740573E-008
  0.57200000000000006         -3.3736361665279269E-008
  0.57499999999999996         -3.9658619102094872E-008
  0.57800000000000007         -4.6542862629544656E-008
  0.58099999999999996         -5.4526548578606278E-008
  0.58400000000000007         -6.3763585574769762E-008
  0.58699999999999997         -7.4425885320954628E-008
  0.59000000000000008         -8.6705046912082314E-008
  0.59299999999999997         -1.0081439802241270E-007
  0.59600000000000009         -1.1699057128716418E-007
  0.59899999999999998         -1.3549558048356555E-007
  0.60200000000000009         -1.5661884109217496E-007
  0.60500000000000020         -1.8067883547872879E-007
  0.60800000000000010         -2.0802533614843025E-007
  0.61100000000000021         -2.3904052333928984E-007
  0.61400000000000010         -2.7414139968884641E-007
  0.61700000000000021         -3.1378073421587795E-007
  0.62000000000000011         -3.5844862222173016E-007
  0.62300000000000022         -4.0867316613598253E-007
  0.62600000000000011         -4.6502079872739145E-007
  0.62900000000000000         -5.2809745189085826E-007
  0.63200000000000012         -5.9854611413484760E-007
  0.63500000000000001         -6.7704842070314569E-007
  0.63800000000000012         -7.6432242218614158E-007
  0.64100000000000001         -8.6111900904845434E-007
  0.64400000000000013         -9.6822147596179911E-007
  0.64700000000000002         -1.0864385454304800E-006
  0.65000000000000013         -1.2166042164773566E-006
  0.65300000000000002         -1.3595665643691303E-006
  0.65600000000000014         -1.5161854354930687E-006
  0.65900000000000003         -1.6873223753130410E-006
  0.66200000000000014         -1.8738339244634879E-006
  0.66500000000000004         -2.0765575218069997E-006
  0.66800000000000015         -2.2963044773198087E-006
  0.67100000000000004         -2.5338387616350838E-006
  0.67400000000000015         -2.7898736039344741E-006
  0.67700000000000005         -3.0650509322828560E-006
  0.68000000000000016         -3.3599208107537235E-006
  0.68300000000000005         -3.6749264701345082E-006
  0.68600000000000017         -4.0103906289590048E-006
  0.68900000000000006         -4.3664832729136986E-006
  0.69200000000000017         -4.7432157969896232E-006
  0.69500000000000006         -5.1404010124981356E-006
  0.69800000000000018         -5.5576439352035426E-006
  0.70100000000000007         -5.9943251224659611E-006
  0.70400000000000018         -6.4495498116536411E-006
  0.70700000000000007         -6.9221684748503789E-006
  0.71000000000000019         -7.4107274994627137E-006
  0.71300000000000008         -7.9134564581436423E-006
  0.71600000000000019         -8.4282437781014426E-006
  0.71900000000000008         -8.9526440638418964E-006
  0.72200000000000020         -9.4838465109994270E-006
  0.72500000000000009         -1.0018658682898343E-005
  0.72800000000000020         -1.0553515763409598E-005
  0.73100000000000009         -1.1084487719058110E-005
  0.73400000000000021         -1.1607267699447307E-005
  0.73700000000000010         -1.2117180351607541E-005
  0.74000000000000021         -1.2609200730277358E-005
  0.74300000000000010         -1.3077968323743658E-005
  0.74600000000000022         -1.3517812491239452E-005
  0.74900000000000011         -1.3922802868834393E-005
  0.75200000000000022         -1.4286766249433284E-005
  0.75500000000000012         -1.4603324617287578E-005
  0.75800000000000001         -1.4866005136502995E-005
  0.76100000000000012         -1.5068207635307475E-005
  0.76400000000000001         -1.5203318949902190E-005
  0.76700000000000013         -1.5264805304202247E-005
  0.77000000000000002         -1.5246286728636408E-005
  0.77300000000000013         -1.5141517990659647E-005
  0.77600000000000002         -1.4944602340520024E-005
  0.77900000000000014         -1.4649974756987584E-005
  0.78200000000000003         -1.4252596517407450E-005
  0.78500000000000014         -1.3747952210604456E-005
  0.78800000000000003         -1.3132194059361925E-005
  0.79100000000000015         -1.2402197231267774E-005
  0.79400000000000004         -1.1555665294290486E-005
  0.79700000000000015         -1.0591210183157914E-005
  0.80000000000000004         -9.5083687106413264E-006
  0.80300000000000016         -8.3077580282449510E-006
  0.80600000000000005         -6.9910813943429390E-006
  0.80900000000000016         -5.5612768061367335E-006
  0.81200000000000006         -4.0224094978732493E-006
  0.81500000000000017         -2.3797543266081233E-006
  0.81800000000000006         -6.3983676111583519E-007
  0.82100000000000017          1.1896229855662138E-006
  0.82400000000000007          3.0997294863772886E-006
  0.82700000000000018          5.0802889155309635E-006
  0.83000000000000007          7.1201040479118595E-006
  0.83300000000000018          9.2068656466963102E-006
  0.83600000000000008          1.1327265364121646E-005
  0.83900000000000019          1.3467168849071310E-005
  0.84200000000000008          1.5611685754135954E-005
  0.84500000000000020          1.7745290768623423E-005
  0.84800000000000009          1.9851918639706415E-005
  0.85100000000000020          2.1915227545846870E-005
  0.85400000000000009          2.3918598563241036E-005
  0.85700000000000021          2.5845469110006527E-005
  0.86000000000000010          2.7679428886550044E-005
  0.86300000000000021          2.9404484363675523E-005
  0.86600000000000010          3.1005076498390886E-005
  0.86900000000000022          3.2466395865468373E-005
  0.87200000000000011          3.3774510978386657E-005
  0.87500000000000022          3.4916523579877387E-005
  0.87800000000000011          3.5880754773963370E-005
  0.88100000000000001          3.6656899370999870E-005
  0.88400000000000012          3.7236186154372462E-005
  0.88700000000000001          3.7611407063707526E-005
  0.89000000000000012          3.7777099716596702E-005
  0.89300000000000002          3.7729565378849414E-005
  0.89600000000000013          3.7466987202856771E-005
  0.89900000000000002          3.6989484015792962E-005
  0.90200000000000014          3.6299117620837880E-005
  0.90500000000000003          3.5399829097267665E-005
  0.90800000000000014          3.4297445595968802E-005
  0.91100000000000003          3.2999592282323948E-005
  0.91400000000000015          3.1515756930087998E-005
  0.91700000000000004          2.9856992233082000E-005
  0.92000000000000015          2.8036008326636263E-005
  0.92300000000000004          2.6066836921033406E-005
  0.92600000000000016          2.3964808475977019E-005
  0.92900000000000005          2.1746333232185984E-005
  0.93200000000000016          1.9428704536180587E-005
  0.93500000000000005          1.7030004855997140E-005
  0.93800000000000017          1.4568768703151300E-005
  0.94100000000000006          1.2063919805109380E-005
  0.94400000000000017          9.5345691827279329E-006
  0.94700000000000006          6.9995719100852181E-006
  0.95000000000000018          4.4776606180068987E-006
  0.95300000000000007          1.9870439009189200E-006
  0.95600000000000018         -4.5467137113166034E-007
  0.95900000000000007         -2.8308063608604680E-006
  0.96200000000000019         -5.1255828201067351E-006
  0.96500000000000008         -7.3243181722405732E-006
  0.96800000000000019         -9.4136192129042362E-006
  0.97100000000000009         -1.1381447773029509E-005
  0.97400000000000020         -1.3217123839643461E-005
  0.97700000000000009         -1.4911562943315649E-005
  0.98000000000000020         -1.6457224671102586E-005
  0.98300000000000010         -1.7848063003178391E-005
  0.98600000000000021         -1.9079709655796954E-005
  0.98900000000000010         -2.0149361713846138E-005
  0.99200000000000021         -2.1055686905801896E-005
  0.99500000000000011         -2.1798993440686075E-005
  0.99800000000000022         -2.2380886017398161E-005
   1.0010000000000001         -2.2804422089438963E-005
   1.0040000000000002         -2.3073819325588773E-005
   1.0070000000000001         -2.3194545613760483E-005
   1.0100000000000000         -2.3173101170432305E-005
   1.0130000000000001         -2.3016941740042219E-005
   1.0160000000000000         -2.2734336636819297E-005
   1.0190000000000001         -2.2334215390475011E-005
   1.0220000000000000         -2.1826013975500421E-005
   1.0250000000000001         -2.1219617195225782E-005
   1.0280000000000000         -2.0525214900574936E-005
   1.0310000000000001         -1.9753218850985828E-005
   1.0340000000000000         -1.8914090643075926E-005
   1.0370000000000001         -1.8018240908816665E-005
   1.0400000000000000         -1.7075896112337737E-005
   1.0430000000000001         -1.6096999752961071E-005
   1.0460000000000000         -1.5091154937857688E-005
   1.0490000000000002         -1.4067592040682219E-005
   1.0520000000000000         -1.3035063117433312E-005
   1.0550000000000002         -1.2001772339430997E-005
   1.0580000000000001         -1.0975349715207787E-005
   1.0610000000000002         -9.9628039501183092E-006
   1.0640000000000001         -8.9704575491535882E-006
   1.0670000000000002         -8.0039857398479994E-006
   1.0700000000000001         -7.0684236525070413E-006
   1.0730000000000002         -6.1681270714797170E-006
   1.0760000000000001         -5.3067642072974153E-006
   1.0790000000000002         -4.4873691635627048E-006
   1.0820000000000001         -3.7123898704740510E-006
   1.0850000000000002         -2.9836409593466149E-006
   1.0880000000000001         -2.3023688176430268E-006
   1.0910000000000002         -1.6693318673490262E-006
   1.0940000000000001         -1.0847842649576081E-006
   1.0970000000000002         -5.4850676423701453E-007
