 -0.39999999999999997          0.0000000000000000     
 -0.39699999999999996          0.0000000000000000     
 -0.39399999999999996          0.0000000000000000     
 -0.39099999999999996          0.0000000000000000     
 -0.38799999999999996          0.0000000000000000     
 -0.38499999999999995          0.0000000000000000     
 -0.38199999999999995          0.0000000000000000     
 -0.37899999999999995          0.0000000000000000     
 -0.37599999999999995          0.0000000000000000     
 -0.37299999999999994          0.0000000000000000     
 -0.37000000000000000          0.0000000000000000     
 -0.36699999999999999          0.0000000000000000     
 -0.36399999999999999          0.0000000000000000     
 -0.36099999999999999          0.0000000000000000     
 -0.35799999999999998          0.0000000000000000     
 -0.35499999999999998          0.0000000000000000     
 -0.35199999999999998          0.0000000000000000     
 -0.34899999999999998          0.0000000000000000     
 -0.34599999999999997          0.0000000000000000     
 -0.34299999999999997          0.0000000000000000     
 -0.33999999999999997          0.0000000000000000     
 -0.33699999999999997          0.0000000000000000     
 -0.33399999999999996          0.0000000000000000     
 -0.33099999999999996          0.0000000000000000     
 -0.32799999999999996          0.0000000000000000     
 -0.32499999999999996          0.0000000000000000     
 -0.32199999999999995          0.0000000000000000     
 -0.31899999999999995          0.0000000000000000     
 -0.31599999999999995          0.0000000000000000     
 -0.31299999999999994          0.0000000000000000     
 -0.30999999999999994          0.0000000000000000     
 -0.30699999999999994          0.0000000000000000     
 -0.30399999999999994          0.0000000000000000     
 -0.30099999999999993          0.0000000000000000     
 -0.29799999999999993          0.0000000000000000     
 -0.29499999999999998          0.0000000000000000     
 -0.29199999999999998          0.0000000000000000     
 -0.28899999999999998          0.0000000000000000     
 -0.28599999999999998          0.0000000000000000     
 -0.28299999999999997          0.0000000000000000     
 -0.27999999999999997          0.0000000000000000     
 -0.27699999999999997          0.0000000000000000     
 -0.27399999999999997          0.0000000000000000     
 -0.27099999999999996          0.0000000000000000     
 -0.26799999999999996          0.0000000000000000     
 -0.26499999999999996          0.0000000000000000     
 -0.26199999999999996          0.0000000000000000     
 -0.25899999999999995          0.0000000000000000     
 -0.25599999999999995          0.0000000000000000     
 -0.25300000000000000          0.0000000000000000     
 -0.24999999999999997          0.0000000000000000     
 -0.24699999999999997          0.0000000000000000     
 -0.24399999999999997          0.0000000000000000     
 -0.24099999999999996          0.0000000000000000     
 -0.23799999999999996          0.0000000000000000     
 -0.23499999999999996          0.0000000000000000     
 -0.23199999999999996          0.0000000000000000     
 -0.22899999999999995          0.0000000000000000     
 -0.22599999999999995          0.0000000000000000     
 -0.22299999999999998          0.0000000000000000     
 -0.21999999999999997          0.0000000000000000     
 -0.21699999999999997          0.0000000000000000     
 -0.21399999999999997          0.0000000000000000     
 -0.21099999999999997          0.0000000000000000     
 -0.20799999999999996          0.0000000000000000     
 -0.20499999999999996          0.0000000000000000     
 -0.20199999999999996          0.0000000000000000     
 -0.19899999999999995          0.0000000000000000     
 -0.19599999999999995          0.0000000000000000     
 -0.19299999999999995          0.0000000000000000     
 -0.18999999999999997          0.0000000000000000     
 -0.18699999999999997          0.0000000000000000     
 -0.18399999999999997          0.0000000000000000     
 -0.18099999999999997          0.0000000000000000     
 -0.17799999999999996          0.0000000000000000     
 -0.17499999999999996          0.0000000000000000     
 -0.17199999999999996          0.0000000000000000     
 -0.16899999999999996          0.0000000000000000     
 -0.16599999999999995          0.0000000000000000     
 -0.16299999999999995          0.0000000000000000     
 -0.15999999999999998          0.0000000000000000     
 -0.15699999999999997          0.0000000000000000     
 -0.15399999999999997          0.0000000000000000     
 -0.15099999999999997          0.0000000000000000     
 -0.14799999999999996          0.0000000000000000     
 -0.14499999999999996          0.0000000000000000     
 -0.14199999999999996          0.0000000000000000     
 -0.13899999999999996          0.0000000000000000     
 -0.13599999999999995          0.0000000000000000     
 -0.13299999999999995          0.0000000000000000     
 -0.12999999999999995          0.0000000000000000     
 -0.12699999999999995          0.0000000000000000     
 -0.12399999999999994          0.0000000000000000     
 -0.12099999999999994          0.0000000000000000     
 -0.11799999999999994          0.0000000000000000     
 -0.11499999999999994          0.0000000000000000     
 -0.11199999999999993          0.0000000000000000     
 -0.10899999999999999          0.0000000000000000     
 -0.10599999999999998         -1.6038565047342412E-041
 -0.10299999999999998          0.0000000000000000     
  -9.9999999999999978E-002     8.0825591324365304E-041
  -9.6999999999999975E-002    -9.3438319900069530E-041
  -9.3999999999999972E-002     9.9454873143029919E-041
  -9.0999999999999970E-002     4.4613499374062529E-040
  -8.7999999999999967E-002     9.8389879728298573E-040
  -8.4999999999999964E-002     1.2559110732283062E-039
  -8.1999999999999962E-002     1.4834783032738892E-040
  -7.8999999999999959E-002    -7.2774453302841724E-040
  -7.5999999999999956E-002     1.9907558868891428E-038
  -7.2999999999999954E-002     2.1980087901385610E-038
  -6.9999999999999951E-002    -2.0479468937713805E-038
  -6.6999999999999948E-002    -8.5884516891547684E-038
  -6.3999999999999946E-002    -7.0031282461031374E-038
  -6.0999999999999943E-002     1.3356317780271537E-037
  -5.7999999999999940E-002     3.8918878581617846E-037
  -5.4999999999999938E-002     2.2150328934048086E-037
  -5.1999999999999935E-002    -7.2007280828199525E-037
  -4.8999999999999932E-002    -1.6977468743309162E-036
  -4.5999999999999985E-002    -6.7155295664075001E-037
  -4.2999999999999983E-002     3.5094440419547619E-036
  -3.9999999999999980E-002     7.2489550461959341E-036
  -3.6999999999999977E-002     2.0274475931418453E-036
  -3.3999999999999975E-002    -1.5953473499451277E-035
  -3.0999999999999972E-002    -3.0574459264622363E-035
  -2.7999999999999969E-002    -6.9161944777190869E-036
  -2.4999999999999967E-002     6.8567346854490668E-035
  -2.1999999999999964E-002     1.2824544661528214E-034
  -1.8999999999999961E-002     3.0395671596035838E-035
  -1.5999999999999959E-002    -2.8013429117369413E-034
  -1.2999999999999956E-002    -5.3521860165031463E-034
  -9.9999999999999534E-003    -1.6498065618665035E-034
  -6.9999999999999507E-003     1.0843695934525434E-033
  -3.9999999999999480E-003     2.2118162355364656E-033
  -9.9999999999994538E-004     9.5629682511696416E-034
   2.0000000000000573E-003    -3.9304913624338294E-033
   5.0000000000000600E-003    -8.9733750361253520E-033
   8.0000000000000626E-003    -5.3838974927800711E-033
   1.1000000000000065E-002     1.3011761903142491E-032
   1.4000000000000068E-002     3.5306335726426498E-032
   1.7000000000000015E-002     2.8415928208508771E-032
   2.0000000000000018E-002    -3.7189481828731124E-032
   2.3000000000000020E-002    -1.3262940919032825E-031
   2.6000000000000023E-002    -1.3910295196893358E-031
   2.9000000000000026E-002     7.7200464471637113E-032
   3.2000000000000028E-002     4.6586727992254341E-031
   3.5000000000000031E-002     6.2837962427455852E-031
   3.8000000000000034E-002    -2.3123060174682645E-033
   4.1000000000000036E-002    -1.4818283996588373E-030
   4.4000000000000039E-002    -2.6021307454221941E-030
   4.7000000000000042E-002    -1.1419580963722025E-030
   5.0000000000000044E-002     4.0097295276835465E-030
   5.3000000000000047E-002     9.7569562635850332E-030
   5.6000000000000050E-002     8.1789459882411779E-030
   5.9000000000000052E-002    -7.6738766757651572E-030
   6.2000000000000055E-002    -3.2346991742864507E-029
   6.5000000000000058E-002    -4.0782505274891313E-029
   6.8000000000000060E-002    -7.0181080980770206E-031
   7.1000000000000063E-002     9.0072337311738565E-029
   7.4000000000000066E-002     1.6482517129244149E-028
   7.7000000000000068E-002     9.9851835353433883E-029
   8.0000000000000016E-002    -1.8164252872725959E-028
   8.3000000000000018E-002    -5.5103260439708053E-028
   8.6000000000000021E-002    -6.1281367163599045E-028
   8.9000000000000024E-002     7.1449354069599882E-029
   9.2000000000000026E-002     1.4557297104700311E-027
   9.5000000000000029E-002     2.5334248047210306E-027
   9.8000000000000032E-002     1.5753154154544376E-027
  0.10100000000000003         -2.4656819081274608E-027
  0.10400000000000004         -7.9166621117757310E-027
  0.10700000000000004         -9.5678943585610573E-027
  0.11000000000000004         -1.3115515325961349E-027
  0.11300000000000004          1.7451123967027707E-026
  0.11600000000000005          3.5467616003125568E-026
  0.11900000000000005          3.0819108562214208E-026
  0.12200000000000005         -1.4444835170190999E-026
  0.12500000000000006         -8.9981029472199768E-026
  0.12800000000000006         -1.4121866909604814E-025
  0.13100000000000006         -8.7186147591676129E-026
  0.13400000000000006          1.1633748388598712E-025
  0.13700000000000007          3.9501976661798433E-025
  0.14000000000000007          5.2517363553345290E-025
  0.14300000000000007          2.3062181094784535E-025
  0.14600000000000007         -5.8160878923738964E-025
  0.14900000000000008         -1.5658589029171782E-024
  0.15200000000000008         -1.8987573114936335E-024
  0.15500000000000008         -6.7211921773835927E-025
  0.15800000000000008          2.3090869418016155E-024
  0.16100000000000009          5.7517624251655293E-024
  0.16400000000000009          6.8550270122792345E-024
  0.16700000000000009          2.6404035914909980E-024
  0.17000000000000010         -7.5383416354999813E-024
  0.17300000000000010         -1.9624984061587662E-023
  0.17600000000000010         -2.4753405603320290E-023
  0.17899999999999999         -1.3086454018244291E-023
  0.18200000000000000          1.8821549610366560E-023
  0.18500000000000000          6.0660794111724630E-023
  0.18800000000000000          8.6769639547863569E-023
  0.19100000000000000          6.5245412783680344E-023
  0.19400000000000001         -2.2314263143884584E-023
  0.19700000000000001         -1.5832724373887256E-022
  0.20000000000000001         -2.7838792365902503E-022
  0.20300000000000001         -2.8644541537281614E-022
  0.20600000000000002         -1.0061041816721882E-022
  0.20900000000000002          2.8355396927359553E-022
  0.21200000000000002          7.4347409491706641E-022
  0.21500000000000002          1.0322088191421188E-021
  0.21800000000000003          8.5903893197911635E-022
  0.22100000000000003          4.0001743010313853E-023
  0.22400000000000003         -1.3338453163837880E-021
  0.22700000000000004         -2.7969962992965155E-021
  0.23000000000000004         -3.5674146365036193E-021
  0.23300000000000004         -2.8059878561310937E-021
  0.23600000000000004         -3.5900090898929231E-023
  0.23900000000000005          4.4199235708955692E-021
  0.24200000000000005          9.1958511919132928E-021
  0.24500000000000005          1.2043207093528863E-020
  0.24800000000000005          1.0494560223781067E-020
  0.25100000000000006          2.9383865007125552E-021
  0.25400000000000006         -1.0219154948092762E-020
  0.25700000000000006         -2.5797461538111595E-020
  0.26000000000000006         -3.7993146303525586E-020
  0.26300000000000007         -3.9737712828146246E-020
  0.26600000000000007         -2.5153660418332081E-020
  0.26900000000000007          7.4945880322983800E-021
  0.27200000000000008          5.3365994448281604E-020
  0.27500000000000008          1.0026645302196038E-019
  0.27800000000000008          1.3039917246372606E-019
  0.28100000000000008          1.2483889767598915E-019
  0.28400000000000009          7.0000028638989327E-020
  0.28700000000000009         -3.5535622314135860E-020
  0.29000000000000009         -1.7604878837628239E-019
  0.29300000000000009         -3.1778503155045730E-019
  0.29600000000000010         -4.1364123371221006E-019
  0.29900000000000010         -4.1361457446525219E-019
  0.30200000000000010         -2.7948625853452171E-019
  0.30499999999999999         -5.5323024285616013E-022
  0.30800000000000000          3.9391885956598281E-019
  0.31100000000000000          8.3003114883796036E-019
  0.31400000000000000          1.1958490755372764E-018
  0.31700000000000000          1.3605199969033073E-018
  0.32000000000000001          1.2041038237749944E-018
  0.32300000000000001          6.5307293890775776E-019
  0.32600000000000001         -2.8619098236986418E-019
  0.32900000000000001         -1.5048070179831609E-018
  0.33200000000000002         -2.7879188305264206E-018
  0.33500000000000002         -3.8358066750357895E-018
  0.33800000000000002         -4.3105531755940548E-018
  0.34100000000000003         -3.9037357294803305E-018
  0.34400000000000003         -2.4151544018642751E-018
  0.34700000000000003          1.7180594871558198E-019
  0.35000000000000003          3.6347098210910939E-018
  0.35300000000000004          7.4924452427391472E-018
  0.35600000000000004          1.1033491001519553E-017
  0.35900000000000004          1.3397555464835129E-017
  0.36200000000000004          1.3707187652340505E-017
  0.36500000000000005          1.1236337378267540E-017
  0.36800000000000005          5.5935528182658892E-018
  0.37100000000000005         -3.1097279291256978E-018
  0.37400000000000005         -1.4139190340764718E-017
  0.37700000000000006         -2.6098756830151270E-017
  0.38000000000000006         -3.6999279910113574E-017
  0.38300000000000006         -4.4450119942180726E-017
  0.38600000000000007         -4.5971747518312307E-017
  0.38900000000000007         -3.9407749656048714E-017
  0.39200000000000007         -2.3392853396784288E-017
  0.39500000000000007          2.1859210811317254E-018
  0.39800000000000008          3.5812627678151273E-017
  0.40100000000000008          7.4133730031186336E-017
  0.40400000000000008          1.1199525237622722E-016
  0.40700000000000008          1.4278394826909723E-016
  0.41000000000000009          1.5909811520619585E-016
  0.41300000000000009          1.5372740746741431E-016
  0.41600000000000009          1.2086826817556780E-016
  0.41900000000000009          5.7445810793055961E-017
  0.42200000000000010         -3.5634708949068497E-017
  0.42500000000000010         -1.5251799826504983E-016
  0.42800000000000010         -2.8192893970121851E-016
  0.43100000000000011         -4.0740136210051820E-016
  0.43400000000000000         -5.0834542386607378E-016
  0.43700000000000000         -5.6200552031441674E-016
  0.44000000000000000         -5.4624345394930280E-016
  0.44300000000000000         -4.4294664118641095E-016
  0.44600000000000001         -2.4172834212697883E-016
  0.44900000000000001          5.6529014586959365E-017
  0.45200000000000001          4.3681773336489593E-016
  0.45500000000000002          8.6838767804310009E-016
  0.45800000000000002          1.3048828065935895E-015
  0.46100000000000002          1.6866192234306560E-015
  0.46400000000000002          1.9452076009186084E-015
  0.46700000000000003          2.0104599979676446E-015
  0.47000000000000003          1.8192138363554527E-015
  0.47300000000000003          1.3253918849541278E-015
  0.47600000000000003          5.1030622827975774E-016
  0.47900000000000004         -6.0802448102810915E-016
  0.48200000000000004         -1.9679202596574196E-015
  0.48500000000000004         -3.4608332561226529E-015
  0.48800000000000004         -4.9331321261004446E-015
  0.49100000000000005         -6.1937864438122112E-015
  0.49400000000000005         -7.0283590371144224E-015
  0.49700000000000005         -7.2190964703332874E-015
  0.50000000000000000         -6.5701180399017071E-015
  0.50300000000000011         -4.9359464237806497E-015
  0.50600000000000001         -2.2508414337850957E-015
  0.50900000000000012          1.4442165398975856E-015
  0.51200000000000001          5.9804511549501584E-015
  0.51500000000000012          1.1049788378812186E-014
  0.51800000000000002          1.6206274036135216E-014
  0.52100000000000013          2.0883111274857741E-014
  0.52400000000000002          2.4426808081902944E-014
  0.52700000000000014          2.6148484930816459E-014
  0.53000000000000003          2.5390517266051483E-014
  0.53300000000000014          2.1604728730753813E-014
  0.53600000000000003          1.4436412292138331E-014
  0.53900000000000015          3.8066252935981162E-015
  0.54200000000000004         -1.0016033592942988E-014
  0.54500000000000015         -2.6363783392364894E-014
  0.54800000000000004         -4.4147436150280944E-014
  0.55100000000000016         -6.1872001262492525E-014
  0.55400000000000005         -7.7696372681579693E-014
  0.55700000000000016         -8.9540073490838869E-014
  0.56000000000000005         -9.5236352200175594E-014
  0.56299999999999994         -9.2726223965853781E-014
  0.56600000000000006         -8.0282934682022900E-014
  0.56899999999999995         -5.6751891456005910E-014
  0.57200000000000006         -2.1786484477613617E-014
  0.57499999999999996          2.3943115525274524E-014
  0.57800000000000007          7.8592503526577661E-014
  0.58099999999999996          1.3906148978214768E-013
  0.58400000000000007          2.0101075431235683E-013
  0.58699999999999997          2.5899415512766446E-013
  0.59000000000000008          3.0671713048308103E-013
  0.59299999999999997          3.3742259635318239E-013
  0.59600000000000009          3.4439518304959410E-013
  0.59899999999999998          3.2156227449881750E-013
  0.60200000000000009          2.6415838021431639E-013
  0.60500000000000020          1.6940913245736170E-013
  0.60800000000000010          3.7179589224252750E-014
  0.61100000000000021         -1.2947246076622616E-013
  0.61400000000000010         -3.2390231888562848E-013
  0.61700000000000021         -5.3570337754966868E-013
  0.62000000000000011         -7.5080660261695729E-013
  0.62300000000000022         -9.5189276413127153E-013
  0.62600000000000011         -1.1191426410474914E-012
  0.62900000000000000         -1.2313244474319346E-012
  0.63200000000000012         -1.2671886199205848E-012
  0.63500000000000001         -1.2071196674271995E-012
  0.63800000000000012         -1.0349580691294507E-012
  0.64100000000000001         -7.3987988491848251E-013
  0.64400000000000013         -3.1820346642436629E-013
  0.64700000000000002          2.2502821935726258E-013
  0.65000000000000013          8.7484700020457578E-013
  0.65300000000000002          1.6056974470433874E-012
  0.65600000000000014          2.3814496404314985E-012
  0.65900000000000003          3.1562047257667982E-012
  0.66200000000000014          3.8759680508767349E-012
  0.66500000000000004          4.4812192871820074E-012
  0.66800000000000015          4.9103404611101747E-012
  0.67100000000000004          5.1038189116343435E-012
  0.67400000000000015          5.0090548348815936E-012
  0.67700000000000005          4.5855540158057190E-012
  0.68000000000000016          3.8102151701514145E-012
  0.68300000000000005          2.6823884910579282E-012
  0.68600000000000017          1.2283277392381763E-012
  0.68900000000000006         -4.9532363998788234E-013
  0.69200000000000017         -2.3994146595288081E-012
  0.69500000000000006         -4.3618427270768759E-012
  0.69800000000000018         -6.2291038882114682E-012
  0.70100000000000007         -7.8200233469287535E-012
  0.70400000000000018         -8.9317864188638755E-012
  0.70700000000000007         -9.3482717565549955E-012
  0.71000000000000019         -8.8505584526204255E-012
  0.71300000000000008         -7.2293620928114723E-012
  0.71600000000000019         -4.2990276127594103E-012
  0.71900000000000008          8.7407543334426080E-014
  0.72200000000000020          6.0226253224845364E-012
  0.72500000000000009          1.3529541819234390E-011
  0.72800000000000020          2.2546565922424402E-011
  0.73100000000000009          3.2914228424803570E-011
  0.73400000000000021          4.4363667534693587E-011
  0.73700000000000010          5.6507438428223301E-011
  0.74000000000000021          6.8832997963572861E-011
  0.74300000000000010          8.0698746254473007E-011
  0.74600000000000022          9.1332594465866435E-011
  0.74900000000000011          9.9832573266291125E-011
  0.75200000000000022          1.0516881747922964E-010
  0.75500000000000012          1.0618570454198418E-010
  0.75800000000000001          1.0160317658016949E-010
  0.76100000000000012          9.0015552806524783E-011
  0.76400000000000001          6.9886004344256154E-011
  0.76700000000000013          3.9534902546812233E-011
  0.77000000000000002         -2.8801589712921366E-012
  0.77300000000000013         -5.9394761362867659E-011
  0.77600000000000002         -1.3228057439201518E-010
  0.77900000000000014         -2.2410316230690907E-010
  0.78200000000000003         -3.3779629007214403E-010
  0.78500000000000014         -4.7675478221101234E-010
  0.78800000000000003         -6.4494829931422861E-010
  0.79100000000000015         -8.4705600468576045E-010
  0.79400000000000004         -1.0886254904975390E-009
  0.79700000000000015         -1.3762566824594549E-009
  0.80000000000000004         -1.7178100557298432E-009
  0.80300000000000016         -2.1226420145128361E-009
  0.80600000000000005         -2.6018690400855310E-009
  0.80900000000000016         -3.1686581102856198E-009
  0.81200000000000006         -3.8385487638679813E-009
  0.81500000000000017         -4.6298088189708333E-009
  0.81800000000000006         -5.5638173351752789E-009
  0.82100000000000017         -6.6654880113084106E-009
  0.82400000000000007         -7.9637235345078135E-009
  0.82700000000000018         -9.4919160729329063E-009
  0.83000000000000007         -1.1288485855274342E-008
  0.83300000000000018         -1.3397469536842158E-008
  0.83600000000000008         -1.5869149053335622E-008
  0.83900000000000019         -1.8760742234487915E-008
  0.84200000000000008         -2.2137131847891300E-008
  0.84500000000000020         -2.6071685386756404E-008
  0.84800000000000009         -3.0647096987069133E-008
  0.85100000000000020         -3.5956311396818099E-008
  0.85400000000000009         -4.2103497052362789E-008
  0.85700000000000021         -4.9205110352585119E-008
  0.86000000000000010         -5.7390940933039536E-008
  0.86300000000000021         -6.6805300371123897E-008
  0.86600000000000010         -7.7608225168528744E-008
  0.86900000000000022         -8.9976625162501102E-008
  0.87200000000000011         -1.0410563458016540E-007
  0.87500000000000022         -1.2020974991015260E-007
  0.87800000000000011         -1.3852412210970482E-007
  0.88100000000000001         -1.5930573070589879E-007
  0.88400000000000012         -1.8283451700307187E-007
  0.88700000000000001         -2.0941442152085601E-007
  0.89000000000000012         -2.3937421081567089E-007
  0.89300000000000002         -2.7306824312364116E-007
  0.89600000000000013         -3.1087707711898084E-007
  0.89900000000000002         -3.5320758696130844E-007
  0.90200000000000014         -4.0049296057264605E-007
  0.90500000000000003         -4.5319238280681816E-007
  0.90800000000000014         -5.1179003942354452E-007
  0.91100000000000003         -5.7679415512658071E-007
  0.91400000000000015         -6.4873497189133102E-007
  0.91700000000000004         -7.2816226884752359E-007
  0.92000000000000015         -8.1564316899278314E-007
  0.92300000000000004         -9.1175723075250118E-007
  0.92600000000000016         -1.0170930283690490E-006
  0.92900000000000005         -1.1322425927842060E-006
  0.93200000000000016         -1.2577953384891883E-006
  0.93500000000000005         -1.3943314557249783E-006
  0.93800000000000017         -1.5424144646360775E-006
  0.94100000000000006         -1.7025815483415061E-006
  0.94400000000000017         -1.8753351831815955E-006
  0.94700000000000006         -2.0611310192080792E-006
  0.95000000000000018         -2.2603683813358773E-006
  0.95300000000000007         -2.4733778886198775E-006
  0.95600000000000018         -2.7004051733976625E-006
  0.95900000000000007         -2.9416020584730306E-006
  0.96200000000000019         -3.1970113530486621E-006
  0.96500000000000008         -3.4665465633717185E-006
  0.96800000000000019         -3.7499851473840520E-006
  0.97100000000000009         -4.0469469971029300E-006
  0.97400000000000020         -4.3568810846878663E-006
  0.97700000000000009         -4.6790508721452673E-006
  0.98000000000000020         -5.0125197330508688E-006
  0.98300000000000010         -5.3561360285337579E-006
  0.98600000000000021         -5.7085271901051551E-006
  0.98900000000000010         -6.0680771256738659E-006
  0.99200000000000021         -6.4329271326555548E-006
  0.99500000000000011         -6.8009595894530631E-006
  0.99800000000000022         -7.1698002736782337E-006
   1.0010000000000001         -7.5368120558533736E-006
   1.0040000000000002         -7.8990970423677923E-006
   1.0070000000000001         -8.2535012786959346E-006
   1.0100000000000000         -8.5966231879924722E-006
   1.0130000000000001         -8.9248163844592780E-006
   1.0160000000000000         -9.2342248367862062E-006
   1.0190000000000001         -9.5207748254343145E-006
   1.0220000000000000         -9.7802317922702917E-006
   1.0250000000000001         -1.0008198084117912E-005
   1.0280000000000000         -1.0200178796305470E-005
   1.0310000000000001         -1.0351591062844689E-005
   1.0340000000000000         -1.0457825268824417E-005
   1.0370000000000001         -1.0514290028223043E-005
   1.0400000000000000         -1.0516450355017746E-005
   1.0430000000000001         -1.0459895902546369E-005
   1.0460000000000000         -1.0340390035801893E-005
   1.0490000000000002         -1.0153942098784969E-005
   1.0520000000000000         -9.8968588819603358E-006
   1.0550000000000002         -9.5657964034533106E-006
   1.0580000000000001         -9.1578487666744287E-006
   1.0610000000000002         -8.6706023717627098E-006
   1.0640000000000001         -8.1021804774157487E-006
   1.0670000000000002         -7.4513164503958374E-006
   1.0700000000000001         -6.7174029872333781E-006
   1.0730000000000002         -5.9005690648608746E-006
   1.0760000000000001         -5.0016784652388599E-006
   1.0790000000000002         -4.0224157102009317E-006
   1.0820000000000001         -2.9652668032648784E-006
   1.0850000000000002         -1.8335878074114598E-006
   1.0880000000000001         -6.3160868596614068E-007
   1.0910000000000002          6.3559386092397728E-007
   1.0940000000000001          1.9620614773792837E-006
   1.0970000000000002          3.3409903069762309E-006
