 -0.39999999999999997          0.0000000000000000     
 -0.39699999999999996          0.0000000000000000     
 -0.39399999999999996          0.0000000000000000     
 -0.39099999999999996          0.0000000000000000     
 -0.38799999999999996          0.0000000000000000     
 -0.38499999999999995          0.0000000000000000     
 -0.38199999999999995          0.0000000000000000     
 -0.37899999999999995          0.0000000000000000     
 -0.37599999999999995          0.0000000000000000     
 -0.37299999999999994          0.0000000000000000     
 -0.37000000000000000          0.0000000000000000     
 -0.36699999999999999          0.0000000000000000     
 -0.36399999999999999          0.0000000000000000     
 -0.36099999999999999          0.0000000000000000     
 -0.35799999999999998          0.0000000000000000     
 -0.35499999999999998          0.0000000000000000     
 -0.35199999999999998          0.0000000000000000     
 -0.34899999999999998          0.0000000000000000     
 -0.34599999999999997          0.0000000000000000     
 -0.34299999999999997          0.0000000000000000     
 -0.33999999999999997          0.0000000000000000     
 -0.33699999999999997          0.0000000000000000     
 -0.33399999999999996          0.0000000000000000     
 -0.33099999999999996          0.0000000000000000     
 -0.32799999999999996          0.0000000000000000     
 -0.32499999999999996          0.0000000000000000     
 -0.32199999999999995          0.0000000000000000     
 -0.31899999999999995          0.0000000000000000     
 -0.31599999999999995          0.0000000000000000     
 -0.31299999999999994          0.0000000000000000     
 -0.30999999999999994          0.0000000000000000     
 -0.30699999999999994          0.0000000000000000     
 -0.30399999999999994          0.0000000000000000     
 -0.30099999999999993          0.0000000000000000     
 -0.29799999999999993          0.0000000000000000     
 -0.29499999999999998          0.0000000000000000     
 -0.29199999999999998          0.0000000000000000     
 -0.28899999999999998          0.0000000000000000     
 -0.28599999999999998          0.0000000000000000     
 -0.28299999999999997          0.0000000000000000     
 -0.27999999999999997          0.0000000000000000     
 -0.27699999999999997          0.0000000000000000     
 -0.27399999999999997          0.0000000000000000     
 -0.27099999999999996          0.0000000000000000     
 -0.26799999999999996          0.0000000000000000     
 -0.26499999999999996          0.0000000000000000     
 -0.26199999999999996          0.0000000000000000     
 -0.25899999999999995          0.0000000000000000     
 -0.25599999999999995          0.0000000000000000     
 -0.25300000000000000          0.0000000000000000     
 -0.24999999999999997          0.0000000000000000     
 -0.24699999999999997          0.0000000000000000     
 -0.24399999999999997          0.0000000000000000     
 -0.24099999999999996          0.0000000000000000     
 -0.23799999999999996          0.0000000000000000     
 -0.23499999999999996          0.0000000000000000     
 -0.23199999999999996          0.0000000000000000     
 -0.22899999999999995          0.0000000000000000     
 -0.22599999999999995          0.0000000000000000     
 -0.22299999999999998          0.0000000000000000     
 -0.21999999999999997          0.0000000000000000     
 -0.21699999999999997          0.0000000000000000     
 -0.21399999999999997          0.0000000000000000     
 -0.21099999999999997          0.0000000000000000     
 -0.20799999999999996          0.0000000000000000     
 -0.20499999999999996          0.0000000000000000     
 -0.20199999999999996          0.0000000000000000     
 -0.19899999999999995          0.0000000000000000     
 -0.19599999999999995          0.0000000000000000     
 -0.19299999999999995          0.0000000000000000     
 -0.18999999999999997          0.0000000000000000     
 -0.18699999999999997          0.0000000000000000     
 -0.18399999999999997          0.0000000000000000     
 -0.18099999999999997          0.0000000000000000     
 -0.17799999999999996          0.0000000000000000     
 -0.17499999999999996          0.0000000000000000     
 -0.17199999999999996          0.0000000000000000     
 -0.16899999999999996          0.0000000000000000     
 -0.16599999999999995          0.0000000000000000     
 -0.16299999999999995          0.0000000000000000     
 -0.15999999999999998          0.0000000000000000     
 -0.15699999999999997          0.0000000000000000     
 -0.15399999999999997          0.0000000000000000     
 -0.15099999999999997          0.0000000000000000     
 -0.14799999999999996          0.0000000000000000     
 -0.14499999999999996          0.0000000000000000     
 -0.14199999999999996          0.0000000000000000     
 -0.13899999999999996          0.0000000000000000     
 -0.13599999999999995          0.0000000000000000     
 -0.13299999999999995          0.0000000000000000     
 -0.12999999999999995          0.0000000000000000     
 -0.12699999999999995          0.0000000000000000     
 -0.12399999999999994          0.0000000000000000     
 -0.12099999999999994          0.0000000000000000     
 -0.11799999999999994          0.0000000000000000     
 -0.11499999999999994          0.0000000000000000     
 -0.11199999999999993          0.0000000000000000     
 -0.10899999999999999          0.0000000000000000     
 -0.10599999999999998          0.0000000000000000     
 -0.10299999999999998          0.0000000000000000     
  -9.9999999999999978E-002     0.0000000000000000     
  -9.6999999999999975E-002     0.0000000000000000     
  -9.3999999999999972E-002     0.0000000000000000     
  -9.0999999999999970E-002     0.0000000000000000     
  -8.7999999999999967E-002     0.0000000000000000     
  -8.4999999999999964E-002     0.0000000000000000     
  -8.1999999999999962E-002     0.0000000000000000     
  -7.8999999999999959E-002     0.0000000000000000     
  -7.5999999999999956E-002     0.0000000000000000     
  -7.2999999999999954E-002     0.0000000000000000     
  -6.9999999999999951E-002     0.0000000000000000     
  -6.6999999999999948E-002     0.0000000000000000     
  -6.3999999999999946E-002     0.0000000000000000     
  -6.0999999999999943E-002     0.0000000000000000     
  -5.7999999999999940E-002     0.0000000000000000     
  -5.4999999999999938E-002     0.0000000000000000     
  -5.1999999999999935E-002     0.0000000000000000     
  -4.8999999999999932E-002     0.0000000000000000     
  -4.5999999999999985E-002     0.0000000000000000     
  -4.2999999999999983E-002     0.0000000000000000     
  -3.9999999999999980E-002     0.0000000000000000     
  -3.6999999999999977E-002     0.0000000000000000     
  -3.3999999999999975E-002     0.0000000000000000     
  -3.0999999999999972E-002     0.0000000000000000     
  -2.7999999999999969E-002     0.0000000000000000     
  -2.4999999999999967E-002     0.0000000000000000     
  -2.1999999999999964E-002     0.0000000000000000     
  -1.8999999999999961E-002     0.0000000000000000     
  -1.5999999999999959E-002     0.0000000000000000     
  -1.2999999999999956E-002     0.0000000000000000     
  -9.9999999999999534E-003     0.0000000000000000     
  -6.9999999999999507E-003     0.0000000000000000     
  -3.9999999999999480E-003     0.0000000000000000     
  -9.9999999999994538E-004     0.0000000000000000     
   2.0000000000000573E-003     0.0000000000000000     
   5.0000000000000600E-003     0.0000000000000000     
   8.0000000000000626E-003     0.0000000000000000     
   1.1000000000000065E-002     0.0000000000000000     
   1.4000000000000068E-002     0.0000000000000000     
   1.7000000000000015E-002     0.0000000000000000     
   2.0000000000000018E-002     0.0000000000000000     
   2.3000000000000020E-002     0.0000000000000000     
   2.6000000000000023E-002     0.0000000000000000     
   2.9000000000000026E-002     0.0000000000000000     
   3.2000000000000028E-002     0.0000000000000000     
   3.5000000000000031E-002     0.0000000000000000     
   3.8000000000000034E-002     0.0000000000000000     
   4.1000000000000036E-002     0.0000000000000000     
   4.4000000000000039E-002     0.0000000000000000     
   4.7000000000000042E-002     0.0000000000000000     
   5.0000000000000044E-002     0.0000000000000000     
   5.3000000000000047E-002     0.0000000000000000     
   5.6000000000000050E-002     0.0000000000000000     
   5.9000000000000052E-002     0.0000000000000000     
   6.2000000000000055E-002     0.0000000000000000     
   6.5000000000000058E-002     0.0000000000000000     
   6.8000000000000060E-002     0.0000000000000000     
   7.1000000000000063E-002     0.0000000000000000     
   7.4000000000000066E-002     0.0000000000000000     
   7.7000000000000068E-002     0.0000000000000000     
   8.0000000000000016E-002     0.0000000000000000     
   8.3000000000000018E-002     0.0000000000000000     
   8.6000000000000021E-002     0.0000000000000000     
   8.9000000000000024E-002     0.0000000000000000     
   9.2000000000000026E-002     0.0000000000000000     
   9.5000000000000029E-002     0.0000000000000000     
   9.8000000000000032E-002     0.0000000000000000     
  0.10100000000000003          0.0000000000000000     
  0.10400000000000004          0.0000000000000000     
  0.10700000000000004          0.0000000000000000     
  0.11000000000000004          0.0000000000000000     
  0.11300000000000004          0.0000000000000000     
  0.11600000000000005          0.0000000000000000     
  0.11900000000000005          0.0000000000000000     
  0.12200000000000005          0.0000000000000000     
  0.12500000000000006          0.0000000000000000     
  0.12800000000000006          0.0000000000000000     
  0.13100000000000006          0.0000000000000000     
  0.13400000000000006          0.0000000000000000     
  0.13700000000000007          0.0000000000000000     
  0.14000000000000007          0.0000000000000000     
  0.14300000000000007          0.0000000000000000     
  0.14600000000000007          0.0000000000000000     
  0.14900000000000008          0.0000000000000000     
  0.15200000000000008          0.0000000000000000     
  0.15500000000000008          0.0000000000000000     
  0.15800000000000008          0.0000000000000000     
  0.16100000000000009          0.0000000000000000     
  0.16400000000000009          0.0000000000000000     
  0.16700000000000009          0.0000000000000000     
  0.17000000000000010          0.0000000000000000     
  0.17300000000000010          0.0000000000000000     
  0.17600000000000010          0.0000000000000000     
  0.17899999999999999          0.0000000000000000     
  0.18200000000000000          0.0000000000000000     
  0.18500000000000000          0.0000000000000000     
  0.18800000000000000          0.0000000000000000     
  0.19100000000000000          0.0000000000000000     
  0.19400000000000001          0.0000000000000000     
  0.19700000000000001          0.0000000000000000     
  0.20000000000000001          0.0000000000000000     
  0.20300000000000001          0.0000000000000000     
  0.20600000000000002          0.0000000000000000     
  0.20900000000000002          0.0000000000000000     
  0.21200000000000002          0.0000000000000000     
  0.21500000000000002          0.0000000000000000     
  0.21800000000000003          0.0000000000000000     
  0.22100000000000003          0.0000000000000000     
  0.22400000000000003          0.0000000000000000     
  0.22700000000000004          0.0000000000000000     
  0.23000000000000004          0.0000000000000000     
  0.23300000000000004          0.0000000000000000     
  0.23600000000000004          0.0000000000000000     
  0.23900000000000005          0.0000000000000000     
  0.24200000000000005          0.0000000000000000     
  0.24500000000000005          0.0000000000000000     
  0.24800000000000005          0.0000000000000000     
  0.25100000000000006          0.0000000000000000     
  0.25400000000000006          0.0000000000000000     
  0.25700000000000006          0.0000000000000000     
  0.26000000000000006          0.0000000000000000     
  0.26300000000000007          0.0000000000000000     
  0.26600000000000007          0.0000000000000000     
  0.26900000000000007          0.0000000000000000     
  0.27200000000000008          0.0000000000000000     
  0.27500000000000008          0.0000000000000000     
  0.27800000000000008          0.0000000000000000     
  0.28100000000000008          0.0000000000000000     
  0.28400000000000009          0.0000000000000000     
  0.28700000000000009          0.0000000000000000     
  0.29000000000000009          0.0000000000000000     
  0.29300000000000009          0.0000000000000000     
  0.29600000000000010          0.0000000000000000     
  0.29900000000000010          0.0000000000000000     
  0.30200000000000010          0.0000000000000000     
  0.30499999999999999          0.0000000000000000     
  0.30800000000000000          0.0000000000000000     
  0.31100000000000000          0.0000000000000000     
  0.31400000000000000          0.0000000000000000     
  0.31700000000000000          0.0000000000000000     
  0.32000000000000001          0.0000000000000000     
  0.32300000000000001          0.0000000000000000     
  0.32600000000000001          0.0000000000000000     
  0.32900000000000001          0.0000000000000000     
  0.33200000000000002          0.0000000000000000     
  0.33500000000000002          0.0000000000000000     
  0.33800000000000002          0.0000000000000000     
  0.34100000000000003          0.0000000000000000     
  0.34400000000000003          0.0000000000000000     
  0.34700000000000003          0.0000000000000000     
  0.35000000000000003          0.0000000000000000     
  0.35300000000000004          0.0000000000000000     
  0.35600000000000004          0.0000000000000000     
  0.35900000000000004          0.0000000000000000     
  0.36200000000000004          0.0000000000000000     
  0.36500000000000005          0.0000000000000000     
  0.36800000000000005          0.0000000000000000     
  0.37100000000000005          0.0000000000000000     
  0.37400000000000005          0.0000000000000000     
  0.37700000000000006          0.0000000000000000     
  0.38000000000000006          0.0000000000000000     
  0.38300000000000006          0.0000000000000000     
  0.38600000000000007          0.0000000000000000     
  0.38900000000000007          0.0000000000000000     
  0.39200000000000007          0.0000000000000000     
  0.39500000000000007          0.0000000000000000     
  0.39800000000000008          0.0000000000000000     
  0.40100000000000008          0.0000000000000000     
  0.40400000000000008          0.0000000000000000     
  0.40700000000000008          0.0000000000000000     
  0.41000000000000009          0.0000000000000000     
  0.41300000000000009          0.0000000000000000     
  0.41600000000000009          0.0000000000000000     
  0.41900000000000009          0.0000000000000000     
  0.42200000000000010          0.0000000000000000     
  0.42500000000000010          0.0000000000000000     
  0.42800000000000010          0.0000000000000000     
  0.43100000000000011          0.0000000000000000     
  0.43400000000000000          0.0000000000000000     
  0.43700000000000000          0.0000000000000000     
  0.44000000000000000          0.0000000000000000     
  0.44300000000000000          0.0000000000000000     
  0.44600000000000001          0.0000000000000000     
  0.44900000000000001          0.0000000000000000     
  0.45200000000000001          0.0000000000000000     
  0.45500000000000002          0.0000000000000000     
  0.45800000000000002          0.0000000000000000     
  0.46100000000000002          0.0000000000000000     
  0.46400000000000002          1.1132778278042820E-041
  0.46700000000000003          2.8280374060944634E-041
  0.47000000000000003         -2.3479800426212400E-041
  0.47300000000000003         -5.9144887768916183E-041
  0.47600000000000003          1.2232986998596105E-039
  0.47900000000000004          2.7317622227831972E-039
  0.48200000000000004          3.6656147693631396E-039
  0.48500000000000004          4.0183141700382074E-039
  0.48800000000000004          4.2019436579186428E-039
  0.49100000000000005         -1.1448601338020027E-039
  0.49400000000000005         -1.9266146263192671E-038
  0.49700000000000005         -2.6890586099837381E-038
  0.50000000000000000         -2.8977675481283706E-038
  0.50300000000000011         -2.0680479242621219E-038
  0.50600000000000001         -6.3403010073986095E-039
  0.50900000000000012          2.5453693160129906E-038
  0.51200000000000001          6.7819945295058955E-038
  0.51500000000000012          1.1135331737414186E-037
  0.51800000000000002          1.4250789930163313E-037
  0.52100000000000013          1.4285619981029926E-037
  0.52400000000000002          9.8080500819791094E-038
  0.52700000000000014         -4.9554081238711490E-039
  0.53000000000000003         -1.6792692884051162E-037
  0.53300000000000014         -3.6910586106995040E-037
  0.53600000000000003         -5.6416050511419674E-037
  0.53900000000000015         -6.8643336114967210E-037
  0.54200000000000004         -6.5460482766723538E-037
  0.54500000000000015         -3.9362054587643466E-037
  0.54800000000000004          1.3978386142346859E-037
  0.55100000000000016          9.2617530800259747E-037
  0.55400000000000005          1.8560538706527086E-036
  0.55700000000000016          2.7173307850046528E-036
  0.56000000000000005          3.2059336008467060E-036
  0.56299999999999994          2.9724423524681064E-036
  0.56600000000000006          1.7040978783296233E-036
  0.56899999999999995         -7.6218868334985317E-037
  0.57200000000000006         -4.3144225589119750E-036
  0.57499999999999996         -8.4590819452859567E-036
  0.57800000000000007         -1.2275002138332464E-035
  0.58099999999999996         -1.4469761227191084E-035
  0.58400000000000007         -1.3570695742071459E-035
  0.58699999999999997         -8.2614267241256413E-036
  0.59000000000000008          2.1624074980940913E-036
  0.59299999999999997          1.7293527369785517E-035
  0.59600000000000009          3.5189129647132171E-035
  0.59899999999999998          5.2175552003999657E-035
  0.60200000000000009          6.3042399339613876E-035
  0.60500000000000020          6.1756122630649763E-035
  0.60800000000000010          4.2733051039274213E-035
  0.61100000000000021          2.5789412066829772E-036
  0.61400000000000010         -5.7962212894167637E-035
  0.61700000000000021         -1.3227877108180247E-034
  0.62000000000000011         -2.0694797527023181E-034
  0.62300000000000022         -2.6217783079840494E-034
  0.62600000000000011         -2.7413363855882436E-034
  0.62900000000000000         -2.1936417045376157E-034
  0.63200000000000012         -8.1109582609103081E-035
  0.63500000000000001          1.4333651650420451E-034
  0.63800000000000012          4.3564479468882062E-034
  0.64100000000000001          7.5179305577201586E-034
  0.64400000000000013          1.0219208853107439E-033
  0.64700000000000002          1.1566538720746293E-033
  0.65000000000000013          1.0610501672678552E-033
  0.65300000000000002          6.5591717548567230E-034
  0.65600000000000014         -9.5731963936480395E-035
  0.65900000000000003         -1.1614188706546561E-033
  0.66200000000000014         -2.4174914582715815E-033
  0.66500000000000004         -3.6405601680490790E-033
  0.66800000000000015         -4.5194819438703874E-033
  0.67100000000000004         -4.6933926946026983E-033
  0.67400000000000015         -3.8172837342456748E-033
  0.67700000000000005         -1.6505842127309980E-033
  0.68000000000000016          1.8429393320177875E-033
  0.68300000000000005          6.4028534692734491E-033
  0.68600000000000017          1.1411783373634848E-032
  0.68900000000000006          1.5893852307521400E-032
  0.69200000000000017          1.8595038258743941E-032
  0.69500000000000006          1.8158872430608544E-032
  0.69800000000000018          1.3394503408075038E-032
  0.70100000000000007          3.6118108531014292E-033
  0.70400000000000018         -1.1026100396424467E-032
  0.70700000000000007         -2.9204722324049842E-032
  0.71000000000000019         -4.8301707982869638E-032
  0.71300000000000008         -6.4459285163245689E-032
  0.71600000000000019         -7.2954995071337601E-032
  0.71900000000000008         -6.8901147952167157E-032
  0.72200000000000020         -4.8241910023176495E-032
  0.72500000000000009         -8.9429588127024266E-033
  0.72800000000000020          4.7811234502664546E-032
  0.73100000000000009          1.1666383406500292E-031
  0.73400000000000021          1.8766576117683956E-031
  0.73700000000000010          2.4666961776608050E-031
  0.74000000000000021          2.7674313275705306E-031
  0.74300000000000010          2.6067083898444809E-031
  0.74600000000000022          1.8440925005800270E-031
  0.74900000000000011          4.1122783441914253E-032
  0.75200000000000022         -1.6482591669304757E-031
  0.75500000000000012         -4.1475116407413137E-031
  0.75800000000000001         -6.7431607237610629E-031
  0.76100000000000012         -8.9487905654387654E-031
  0.76400000000000001         -1.0181570647999878E-030
  0.76700000000000013         -9.8440585208121777E-031
  0.77000000000000002         -7.4367804024744274E-031
  0.77300000000000013         -2.6900724573836291E-031
  0.77600000000000002          4.3043532884989966E-031
  0.77900000000000014          1.2987352815208154E-030
  0.78200000000000003          2.2280729408896612E-030
  0.78500000000000014          3.0617577673166532E-030
  0.78800000000000003          3.6075547743819186E-030
  0.79100000000000015          3.6620839852546054E-030
  0.79400000000000004          3.0453186829657033E-030
  0.79700000000000015          1.6419169635289002E-030
  0.80000000000000004         -5.5605637711465660E-031
  0.80300000000000016         -3.4124529991123384E-030
  0.80600000000000005         -6.6250102777310825E-030
  0.80900000000000016         -9.7265700458856722E-030
  0.81200000000000006         -1.2116447865799199E-029
  0.81500000000000017         -1.3125814729192985E-029
  0.81800000000000006         -1.2115462742358465E-029
  0.82100000000000017         -8.5990262524188089E-030
  0.82400000000000007         -2.3772138189076023E-030
  0.82700000000000018          6.3370519324008026E-030
  0.83000000000000007          1.6826789768768857E-029
  0.83300000000000018          2.7838712538844607E-029
  0.83600000000000008          3.7633429910729595E-029
  0.83900000000000019          4.4133880676387063E-029
  0.84200000000000008          4.5175817045495224E-029
  0.84500000000000020          3.8848057692017717E-029
  0.84800000000000009          2.3890652875591249E-029
  0.85100000000000020          1.0269993573599765E-031
  0.85400000000000009         -3.1306038937437800E-029
  0.85700000000000021         -6.7492785353898514E-029
  0.86000000000000010         -1.0396268868944435E-028
  0.86300000000000021         -1.3481310668082519E-028
  0.86600000000000010         -1.5327536190359431E-028
  0.86900000000000022         -1.5255253894596545E-028
  0.87200000000000011         -1.2690153779610951E-028
  0.87500000000000022         -7.2854970241127353E-029
  0.87800000000000011          9.5696133128000777E-030
  0.88100000000000001          1.1586395271837453E-028
  0.88400000000000012          2.3644302835741444E-028
  0.88700000000000001          3.5668079457376584E-028
  0.89000000000000012          4.5772990308481511E-028
  0.89300000000000002          5.1822045288506956E-028
  0.89600000000000013          5.1680952119590703E-028
  0.89900000000000002          4.3543191865916246E-028
  0.90200000000000014          2.6295148377197847E-028
  0.90500000000000003         -1.2184118273331873E-030
  0.90800000000000014         -3.4407900870613367E-028
  0.91100000000000003         -7.3717934920677029E-028
  0.91400000000000015         -1.1365237249850721E-027
  0.91700000000000004         -1.4847100247000517E-027
  0.92000000000000015         -1.7156060313209795E-027
  0.92300000000000004         -1.7615391399798513E-027
  0.92600000000000016         -1.5626406635817101E-027
  0.92900000000000005         -1.0775814193809425E-027
  0.93200000000000016         -2.9456510063992409E-028
  0.93500000000000005          7.5894471875312049E-028
  0.93800000000000017          2.0093632928674749E-027
  0.94100000000000006          3.3348078231437996E-027
  0.94400000000000017          4.5690072420281077E-027
  0.94700000000000006          5.5124030804685313E-027
  0.95000000000000018          5.9507776895459152E-027
  0.95300000000000007          5.6807936773736466E-027
  0.95600000000000018          4.5408205898291801E-027
  0.95900000000000007          2.4442578925107425E-027
  0.96200000000000019         -5.8858044974674382E-028
  0.96500000000000008         -4.4044320438916451E-027
  0.96800000000000019         -8.7020800161793199E-027
  0.97100000000000009         -1.3033048866409987E-026
  0.97400000000000020         -1.6821979164351777E-026
  0.97700000000000009         -1.9409232972566146E-026
  0.98000000000000020         -2.0115493070381651E-026
  0.98300000000000010         -1.8325989690085495E-026
  0.98600000000000021         -1.3588271152626976E-026
  0.98900000000000010         -5.7146204263142763E-027
  0.99200000000000021          5.1234979261396864E-027
  0.99500000000000011          1.8321940686242693E-026
  0.99800000000000022          3.2807314808357556E-026
   1.0010000000000001          4.7050531284817335E-026
   1.0040000000000002          5.9141840088703361E-026
   1.0070000000000001          6.6933748996877737E-026
   1.0100000000000000          6.8250990233761696E-026
   1.0130000000000001          6.1158351782033224E-026
   1.0160000000000000          4.4267818608285840E-026
   1.0190000000000001          1.7056677267326984E-026
   1.0220000000000000         -1.9839197599198725E-026
   1.0250000000000001         -6.4400949092692492E-026
   1.0280000000000000         -1.1311458874253836E-025
   1.0310000000000001         -1.6101404683514712E-025
   1.0340000000000000         -2.0191397827067902E-025
   1.0370000000000001         -2.2885031819558065E-025
   1.0400000000000000         -2.3473099663301194E-025
   1.0430000000000001         -2.1316514792213173E-025
   1.0460000000000000         -1.5942422711671139E-025
   1.0490000000000002         -7.1445477983575483E-026
   1.0520000000000000          4.9226400280664790E-026
   1.0550000000000002          1.9669017598732141E-025
   1.0580000000000001          3.6026736770154116E-025
   1.0610000000000002          5.2454227939321078E-025
   1.0640000000000001          6.6997154083359278E-025
   1.0670000000000002          7.7413908613586447E-025
   1.0700000000000001          8.1366191585641493E-025
   1.0730000000000002          7.6669565478448221E-025
   1.0760000000000001          6.1589471439405853E-025
   1.0790000000000002          3.5158551032984918E-025
   1.0820000000000001         -2.5132573243600978E-026
   1.0850000000000002         -4.9976621899387863E-025
   1.0880000000000001         -1.0426810459000988E-024
   1.0910000000000002         -1.6086610067561511E-024
   1.0940000000000001         -2.1381335390951601E-024
   1.0970000000000002         -2.5603474813353248E-024
