 -0.39999999999999997          0.0000000000000000     
 -0.39699999999999996          0.0000000000000000     
 -0.39399999999999996          0.0000000000000000     
 -0.39099999999999996          0.0000000000000000     
 -0.38799999999999996          0.0000000000000000     
 -0.38499999999999995          0.0000000000000000     
 -0.38199999999999995          0.0000000000000000     
 -0.37899999999999995          0.0000000000000000     
 -0.37599999999999995          0.0000000000000000     
 -0.37299999999999994          0.0000000000000000     
 -0.37000000000000000          0.0000000000000000     
 -0.36699999999999999          0.0000000000000000     
 -0.36399999999999999          0.0000000000000000     
 -0.36099999999999999          0.0000000000000000     
 -0.35799999999999998          0.0000000000000000     
 -0.35499999999999998          0.0000000000000000     
 -0.35199999999999998          0.0000000000000000     
 -0.34899999999999998          0.0000000000000000     
 -0.34599999999999997          0.0000000000000000     
 -0.34299999999999997          0.0000000000000000     
 -0.33999999999999997          0.0000000000000000     
 -0.33699999999999997          0.0000000000000000     
 -0.33399999999999996          0.0000000000000000     
 -0.33099999999999996          0.0000000000000000     
 -0.32799999999999996          0.0000000000000000     
 -0.32499999999999996          0.0000000000000000     
 -0.32199999999999995          0.0000000000000000     
 -0.31899999999999995          0.0000000000000000     
 -0.31599999999999995          0.0000000000000000     
 -0.31299999999999994          0.0000000000000000     
 -0.30999999999999994          0.0000000000000000     
 -0.30699999999999994          0.0000000000000000     
 -0.30399999999999994          0.0000000000000000     
 -0.30099999999999993          0.0000000000000000     
 -0.29799999999999993          0.0000000000000000     
 -0.29499999999999998          0.0000000000000000     
 -0.29199999999999998          0.0000000000000000     
 -0.28899999999999998          0.0000000000000000     
 -0.28599999999999998          0.0000000000000000     
 -0.28299999999999997          0.0000000000000000     
 -0.27999999999999997          0.0000000000000000     
 -0.27699999999999997          0.0000000000000000     
 -0.27399999999999997          0.0000000000000000     
 -0.27099999999999996          0.0000000000000000     
 -0.26799999999999996          0.0000000000000000     
 -0.26499999999999996          0.0000000000000000     
 -0.26199999999999996          0.0000000000000000     
 -0.25899999999999995          0.0000000000000000     
 -0.25599999999999995          0.0000000000000000     
 -0.25300000000000000          0.0000000000000000     
 -0.24999999999999997          0.0000000000000000     
 -0.24699999999999997          0.0000000000000000     
 -0.24399999999999997          0.0000000000000000     
 -0.24099999999999996          0.0000000000000000     
 -0.23799999999999996          0.0000000000000000     
 -0.23499999999999996          0.0000000000000000     
 -0.23199999999999996          0.0000000000000000     
 -0.22899999999999995          0.0000000000000000     
 -0.22599999999999995          0.0000000000000000     
 -0.22299999999999998          0.0000000000000000     
 -0.21999999999999997          0.0000000000000000     
 -0.21699999999999997          0.0000000000000000     
 -0.21399999999999997          0.0000000000000000     
 -0.21099999999999997          0.0000000000000000     
 -0.20799999999999996          0.0000000000000000     
 -0.20499999999999996          0.0000000000000000     
 -0.20199999999999996          0.0000000000000000     
 -0.19899999999999995          0.0000000000000000     
 -0.19599999999999995          0.0000000000000000     
 -0.19299999999999995          0.0000000000000000     
 -0.18999999999999997          0.0000000000000000     
 -0.18699999999999997          0.0000000000000000     
 -0.18399999999999997          0.0000000000000000     
 -0.18099999999999997          0.0000000000000000     
 -0.17799999999999996          0.0000000000000000     
 -0.17499999999999996          0.0000000000000000     
 -0.17199999999999996          0.0000000000000000     
 -0.16899999999999996          0.0000000000000000     
 -0.16599999999999995          0.0000000000000000     
 -0.16299999999999995          0.0000000000000000     
 -0.15999999999999998          0.0000000000000000     
 -0.15699999999999997          0.0000000000000000     
 -0.15399999999999997          0.0000000000000000     
 -0.15099999999999997          0.0000000000000000     
 -0.14799999999999996          0.0000000000000000     
 -0.14499999999999996          0.0000000000000000     
 -0.14199999999999996          0.0000000000000000     
 -0.13899999999999996          0.0000000000000000     
 -0.13599999999999995          0.0000000000000000     
 -0.13299999999999995          0.0000000000000000     
 -0.12999999999999995          0.0000000000000000     
 -0.12699999999999995          0.0000000000000000     
 -0.12399999999999994          0.0000000000000000     
 -0.12099999999999994          0.0000000000000000     
 -0.11799999999999994          0.0000000000000000     
 -0.11499999999999994          0.0000000000000000     
 -0.11199999999999993          0.0000000000000000     
 -0.10899999999999999          0.0000000000000000     
 -0.10599999999999998          0.0000000000000000     
 -0.10299999999999998          0.0000000000000000     
  -9.9999999999999978E-002     0.0000000000000000     
  -9.6999999999999975E-002     0.0000000000000000     
  -9.3999999999999972E-002     0.0000000000000000     
  -9.0999999999999970E-002     0.0000000000000000     
  -8.7999999999999967E-002     0.0000000000000000     
  -8.4999999999999964E-002     0.0000000000000000     
  -8.1999999999999962E-002     0.0000000000000000     
  -7.8999999999999959E-002     0.0000000000000000     
  -7.5999999999999956E-002     0.0000000000000000     
  -7.2999999999999954E-002     0.0000000000000000     
  -6.9999999999999951E-002     0.0000000000000000     
  -6.6999999999999948E-002     0.0000000000000000     
  -6.3999999999999946E-002     0.0000000000000000     
  -6.0999999999999943E-002     0.0000000000000000     
  -5.7999999999999940E-002     0.0000000000000000     
  -5.4999999999999938E-002     0.0000000000000000     
  -5.1999999999999935E-002     0.0000000000000000     
  -4.8999999999999932E-002     0.0000000000000000     
  -4.5999999999999985E-002     0.0000000000000000     
  -4.2999999999999983E-002     0.0000000000000000     
  -3.9999999999999980E-002     0.0000000000000000     
  -3.6999999999999977E-002     0.0000000000000000     
  -3.3999999999999975E-002     0.0000000000000000     
  -3.0999999999999972E-002     0.0000000000000000     
  -2.7999999999999969E-002     0.0000000000000000     
  -2.4999999999999967E-002     0.0000000000000000     
  -2.1999999999999964E-002     0.0000000000000000     
  -1.8999999999999961E-002     0.0000000000000000     
  -1.5999999999999959E-002     0.0000000000000000     
  -1.2999999999999956E-002     0.0000000000000000     
  -9.9999999999999534E-003     0.0000000000000000     
  -6.9999999999999507E-003     0.0000000000000000     
  -3.9999999999999480E-003     0.0000000000000000     
  -9.9999999999994538E-004     0.0000000000000000     
   2.0000000000000573E-003     0.0000000000000000     
   5.0000000000000600E-003     0.0000000000000000     
   8.0000000000000626E-003     0.0000000000000000     
   1.1000000000000065E-002     0.0000000000000000     
   1.4000000000000068E-002     0.0000000000000000     
   1.7000000000000015E-002     0.0000000000000000     
   2.0000000000000018E-002     0.0000000000000000     
   2.3000000000000020E-002     0.0000000000000000     
   2.6000000000000023E-002     0.0000000000000000     
   2.9000000000000026E-002     0.0000000000000000     
   3.2000000000000028E-002     0.0000000000000000     
   3.5000000000000031E-002     0.0000000000000000     
   3.8000000000000034E-002     0.0000000000000000     
   4.1000000000000036E-002     0.0000000000000000     
   4.4000000000000039E-002     0.0000000000000000     
   4.7000000000000042E-002     0.0000000000000000     
   5.0000000000000044E-002     0.0000000000000000     
   5.3000000000000047E-002     0.0000000000000000     
   5.6000000000000050E-002     0.0000000000000000     
   5.9000000000000052E-002     0.0000000000000000     
   6.2000000000000055E-002     0.0000000000000000     
   6.5000000000000058E-002     0.0000000000000000     
   6.8000000000000060E-002     0.0000000000000000     
   7.1000000000000063E-002     0.0000000000000000     
   7.4000000000000066E-002     0.0000000000000000     
   7.7000000000000068E-002     0.0000000000000000     
   8.0000000000000016E-002     0.0000000000000000     
   8.3000000000000018E-002     0.0000000000000000     
   8.6000000000000021E-002     0.0000000000000000     
   8.9000000000000024E-002     0.0000000000000000     
   9.2000000000000026E-002     0.0000000000000000     
   9.5000000000000029E-002     0.0000000000000000     
   9.8000000000000032E-002     0.0000000000000000     
  0.10100000000000003          0.0000000000000000     
  0.10400000000000004          0.0000000000000000     
  0.10700000000000004          0.0000000000000000     
  0.11000000000000004          0.0000000000000000     
  0.11300000000000004          0.0000000000000000     
  0.11600000000000005          0.0000000000000000     
  0.11900000000000005          0.0000000000000000     
  0.12200000000000005          0.0000000000000000     
  0.12500000000000006          0.0000000000000000     
  0.12800000000000006          0.0000000000000000     
  0.13100000000000006          0.0000000000000000     
  0.13400000000000006          0.0000000000000000     
  0.13700000000000007          0.0000000000000000     
  0.14000000000000007          0.0000000000000000     
  0.14300000000000007          0.0000000000000000     
  0.14600000000000007          0.0000000000000000     
  0.14900000000000008          0.0000000000000000     
  0.15200000000000008          0.0000000000000000     
  0.15500000000000008          0.0000000000000000     
  0.15800000000000008          0.0000000000000000     
  0.16100000000000009          0.0000000000000000     
  0.16400000000000009          0.0000000000000000     
  0.16700000000000009          0.0000000000000000     
  0.17000000000000010          0.0000000000000000     
  0.17300000000000010          0.0000000000000000     
  0.17600000000000010          0.0000000000000000     
  0.17899999999999999          0.0000000000000000     
  0.18200000000000000          0.0000000000000000     
  0.18500000000000000          0.0000000000000000     
  0.18800000000000000          0.0000000000000000     
  0.19100000000000000          0.0000000000000000     
  0.19400000000000001          0.0000000000000000     
  0.19700000000000001          0.0000000000000000     
  0.20000000000000001          0.0000000000000000     
  0.20300000000000001          0.0000000000000000     
  0.20600000000000002          0.0000000000000000     
  0.20900000000000002          0.0000000000000000     
  0.21200000000000002          0.0000000000000000     
  0.21500000000000002          0.0000000000000000     
  0.21800000000000003          0.0000000000000000     
  0.22100000000000003          0.0000000000000000     
  0.22400000000000003          0.0000000000000000     
  0.22700000000000004          0.0000000000000000     
  0.23000000000000004          0.0000000000000000     
  0.23300000000000004          0.0000000000000000     
  0.23600000000000004          0.0000000000000000     
  0.23900000000000005          0.0000000000000000     
  0.24200000000000005          0.0000000000000000     
  0.24500000000000005          0.0000000000000000     
  0.24800000000000005          0.0000000000000000     
  0.25100000000000006          0.0000000000000000     
  0.25400000000000006          0.0000000000000000     
  0.25700000000000006          0.0000000000000000     
  0.26000000000000006          0.0000000000000000     
  0.26300000000000007          0.0000000000000000     
  0.26600000000000007          0.0000000000000000     
  0.26900000000000007          0.0000000000000000     
  0.27200000000000008          0.0000000000000000     
  0.27500000000000008          0.0000000000000000     
  0.27800000000000008          0.0000000000000000     
  0.28100000000000008          0.0000000000000000     
  0.28400000000000009          0.0000000000000000     
  0.28700000000000009          0.0000000000000000     
  0.29000000000000009          0.0000000000000000     
  0.29300000000000009          0.0000000000000000     
  0.29600000000000010          0.0000000000000000     
  0.29900000000000010          0.0000000000000000     
  0.30200000000000010          0.0000000000000000     
  0.30499999999999999          0.0000000000000000     
  0.30800000000000000          0.0000000000000000     
  0.31100000000000000          0.0000000000000000     
  0.31400000000000000          0.0000000000000000     
  0.31700000000000000          0.0000000000000000     
  0.32000000000000001          0.0000000000000000     
  0.32300000000000001          0.0000000000000000     
  0.32600000000000001          0.0000000000000000     
  0.32900000000000001          0.0000000000000000     
  0.33200000000000002          0.0000000000000000     
  0.33500000000000002          0.0000000000000000     
  0.33800000000000002          0.0000000000000000     
  0.34100000000000003          0.0000000000000000     
  0.34400000000000003          0.0000000000000000     
  0.34700000000000003          0.0000000000000000     
  0.35000000000000003         -6.8529565421721644E-042
  0.35300000000000004          8.0974434531120325E-042
  0.35600000000000004          1.6982321351594405E-041
  0.35900000000000004         -1.6615699547109384E-041
  0.36200000000000004         -3.9709500041703864E-041
  0.36500000000000005          8.1293795866152314E-041
  0.36800000000000005          1.0395131517823448E-039
  0.37100000000000005          1.2477812502372169E-039
  0.37400000000000005          9.5410932557298217E-040
  0.37700000000000006         -1.5614425379447853E-041
  0.38000000000000006         -1.5244544766210793E-039
  0.38300000000000006         -3.8992259883501310E-039
  0.38600000000000007         -5.9408884387628919E-039
  0.38900000000000007         -6.1948803285703801E-039
  0.39200000000000007         -3.0681400525166890E-040
  0.39500000000000007          8.9331595426686806E-039
  0.39800000000000008          2.0497850580257472E-038
  0.40100000000000008          3.0003473647298789E-038
  0.40400000000000008          3.3181720040082903E-038
  0.40700000000000008          3.6365390985402916E-038
  0.41000000000000009          1.8879580154597724E-038
  0.41300000000000009         -1.9687235659454217E-038
  0.41600000000000009         -7.5314781773122880E-038
  0.41900000000000009         -1.3675737992162810E-037
  0.42200000000000010         -1.8606113005139298E-037
  0.42500000000000010         -1.8807484430492245E-037
  0.42800000000000010         -1.1216483521013009E-037
  0.43100000000000011          6.0486996288019260E-038
  0.43400000000000000          3.2300390384978137E-037
  0.43700000000000000          6.2801402611691290E-037
  0.44000000000000000          8.7950716547677756E-037
  0.44300000000000000          9.4660700774205957E-037
  0.44600000000000001          6.8580862325562325E-037
  0.44900000000000001         -6.2853355144909525E-039
  0.45200000000000001         -1.1330483602543628E-036
  0.45500000000000002         -2.5365511168899957E-036
  0.45800000000000002         -3.8596464372155926E-036
  0.46100000000000002         -4.5620885531469517E-036
  0.46400000000000002         -4.0129862453992367E-036
  0.46700000000000003         -1.6654566543767151E-036
  0.47000000000000003          2.7007280107509600E-036
  0.47300000000000003          8.7143643198813824E-036
  0.47600000000000003          1.5209770858025629E-035
  0.47900000000000004          2.0190330683495135E-035
  0.48200000000000004          2.1056702944918176E-035
  0.48500000000000004          1.5161861044884752E-035
  0.48800000000000004          6.8196097961340261E-037
  0.49100000000000005         -2.2322943797172431E-035
  0.49400000000000005         -5.0913647402058284E-035
  0.49700000000000005         -7.8702327571446501E-035
  0.50000000000000000         -9.6108289397023623E-035
  0.50300000000000011         -9.1779089272336204E-035
  0.50600000000000001         -5.5313391999890007E-035
  0.50900000000000012          1.8928352908052527E-035
  0.51200000000000001          1.2758219586075731E-034
  0.51500000000000012          2.5471564748569944E-034
  0.51800000000000002          3.7037515944600275E-034
  0.52100000000000013          4.3272303792684492E-034
  0.52400000000000002          3.9485795037829658E-034
  0.52700000000000014          2.1650715960998400E-034
  0.53000000000000003         -1.2057758653676056E-034
  0.53300000000000014         -5.9633103068230831E-034
  0.53600000000000003         -1.1395796190788894E-033
  0.53900000000000015         -1.6241113050979674E-033
  0.54200000000000004         -1.8788857025614613E-033
  0.54500000000000015         -1.7159754947111409E-033
  0.54800000000000004         -9.7640766211870405E-034
  0.55100000000000016          4.1093650167066391E-034
  0.55400000000000005          2.3680036060516894E-033
  0.55700000000000016          4.6198357245368387E-033
  0.56000000000000005          6.6797546688033259E-033
  0.56299999999999994          7.8861392293949675E-033
  0.56600000000000006          7.5034841290187342E-033
  0.56899999999999995          4.8886239260481458E-033
  0.57200000000000006         -2.9420069509431039E-034
  0.57499999999999996         -7.8458589804995972E-033
  0.57800000000000007         -1.6846861156615507E-032
  0.58099999999999996         -2.5581270236624910E-032
  0.58400000000000007         -3.1635390225917163E-032
  0.58699999999999997         -3.2220058645472863E-032
  0.59000000000000008         -2.4726677016076570E-032
  0.59299999999999997         -7.4724589212074441E-033
  0.59600000000000009          1.9475768685204632E-032
  0.59899999999999998          5.3574574820300970E-032
  0.60200000000000009          8.9393898909234884E-032
  0.60500000000000020          1.1875466625916179E-031
  0.60800000000000010          1.3160069942237856E-031
  0.61100000000000021          1.1768359503471955E-031
  0.61400000000000010          6.8976324480269109E-032
  0.61700000000000021         -1.7480393771848987E-032
  0.62000000000000011         -1.3680858260389427E-031
  0.62300000000000022         -2.7429027556983186E-031
  0.62600000000000011         -4.0489817814866337E-031
  0.62900000000000000         -4.9505897468103121E-031
  0.63200000000000012         -5.0709252851232971E-031
  0.63500000000000001         -4.0631328985072419E-031
  0.63800000000000012         -1.7016982559890281E-031
  0.64100000000000001          2.0189738504008493E-031
  0.64400000000000013          6.7983621003904970E-031
  0.64700000000000002          1.1980104725834622E-030
  0.65000000000000013          1.6562900600085347E-030
  0.65300000000000002          1.9292049183655315E-030
  0.65600000000000014          1.8840496384271326E-030
  0.65900000000000003          1.4071992657552381E-030
  0.66200000000000014          4.3588181190544644E-031
  0.66500000000000004         -1.0095165238120813E-030
  0.66800000000000015         -2.7993038194802636E-030
  0.67100000000000004         -4.6822301537940034E-030
  0.67400000000000015         -6.2945309164565009E-030
  0.67700000000000005         -7.1957384107956458E-030
  0.68000000000000016         -6.9329992463906921E-030
  0.68300000000000005         -5.1303504115988891E-030
  0.68600000000000017         -1.5931220503255112E-030
  0.68900000000000006          3.5887352950977635E-030
  0.69200000000000017          9.9595689347176074E-030
  0.69500000000000006          1.6662889767760763E-029
  0.69800000000000018          2.2474413851033631E-029
  0.70100000000000007          2.5919096905136030E-029
  0.70400000000000018          2.5476261576962498E-029
  0.70700000000000007          1.9861820080180569E-029
  0.71000000000000019          8.3571951189062449E-030
  0.71300000000000008         -8.8628934285431956E-030
  0.71600000000000019         -3.0467337405773849E-029
  0.71900000000000008         -5.3840220702254832E-029
  0.72200000000000020         -7.5153147292721626E-029
  0.72500000000000009         -8.9688344243305812E-029
  0.72800000000000020         -9.2428708072784889E-029
  0.73100000000000009         -7.8890368880245689E-029
  0.73400000000000021         -4.6116377379384175E-029
  0.73700000000000010          6.2963751696150438E-030
  0.74000000000000021          7.5315485983685977E-029
  0.74300000000000010          1.5393463233064882E-028
  0.74600000000000022          2.3118172313967728E-028
  0.74900000000000011          2.9282756652458439E-028
  0.75200000000000022          3.2288490971941124E-028
  0.75500000000000012          3.0585985813978178E-028
  0.75800000000000001          2.2959790034046539E-028
  0.76100000000000012          8.8396116090758918E-029
  0.76400000000000001         -1.1405968892542657E-028
  0.76700000000000013         -3.6249114887213541E-028
  0.77000000000000002         -6.2911841975662544E-028
  0.77300000000000013         -8.7458829106133887E-028
  0.77600000000000002         -1.0510828438780217E-027
  0.77900000000000014         -1.1077228524273642E-027
  0.78200000000000003         -9.9801812892122460E-028
  0.78500000000000014         -6.8875010454386760E-028
  0.78800000000000003         -1.6922436198502884E-028
  0.79100000000000015          5.4044928948062936E-028
  0.79400000000000004          1.3836530485728407E-027
  0.79700000000000015          2.2656935919645321E-027
  0.80000000000000004          3.0578068562049852E-027
  0.80300000000000016          3.6075436678300372E-027
  0.80600000000000005          3.7557438449581860E-027
  0.80900000000000016          3.3592150980246504E-027
  0.81200000000000006          2.3172595379292663E-027
  0.81500000000000017          5.9904268964846769E-028
  0.81800000000000006         -1.7320493451962956E-027
  0.82100000000000017         -4.5014706430498922E-027
  0.82400000000000007         -7.4185385042151487E-027
  0.82700000000000018         -1.0087131570599750E-026
  0.83000000000000007         -1.2034966164137589E-026
  0.83300000000000018         -1.2761710426647258E-026
  0.83600000000000008         -1.1804363381881031E-026
  0.83900000000000019         -8.8147799504860174E-027
  0.84200000000000008         -3.6417059543461498E-027
  0.84500000000000020          3.5932361808393155E-027
  0.84800000000000009          1.2437753274451651E-026
  0.85100000000000020          2.2082128200678734E-026
  0.85400000000000009          3.1375561549193929E-026
  0.85700000000000021          3.8894059228662017E-026
  0.86000000000000010          4.3064785389344751E-026
  0.86300000000000021          4.2343850132089541E-026
  0.86600000000000010          3.5437645237408380E-026
  0.86900000000000022          2.1549038677722409E-026
  0.87200000000000011          6.2175467861204315E-028
  0.87500000000000022         -2.6450343571435726E-026
  0.87800000000000011         -5.7686434914944800E-026
  0.88100000000000001         -8.9990887928341428E-026
  0.88400000000000012         -1.1926667632379975E-025
  0.88700000000000001         -1.4069150842266867E-025
  0.89000000000000012         -1.4916465404039659E-025
  0.89300000000000002         -1.3990685551098888E-025
  0.89600000000000013         -1.0917746627835990E-025
  0.89900000000000002         -5.5047642536897959E-026
  0.90200000000000014          2.1860052457596034E-026
  0.90500000000000003          1.1776552740105976E-025
  0.90800000000000014          2.2537209883538036E-025
  0.91100000000000003          3.3386436805639955E-025
  0.91400000000000015          4.2935482316179864E-025
  0.91700000000000004          4.9584282415183153E-025
  0.92000000000000015          5.1668916155396869E-025
  0.92300000000000004          4.7656199596931695E-025
  0.92600000000000016          3.6372815082714564E-025
  0.92900000000000005          1.7249062018966171E-025
  0.93200000000000016         -9.4481479944714858E-026
  0.93500000000000005         -4.2426628733174738E-025
  0.93800000000000017         -7.9257450844863606E-025
  0.94100000000000006         -1.1637424742940707E-024
  0.94400000000000017         -1.4921423743382039E-024
  0.94700000000000006         -1.7251545681646564E-024
  0.95000000000000018         -1.8077947261535562E-024
  0.95300000000000007         -1.6887926941577380E-024
  0.95600000000000018         -1.3278262686645051E-024
  0.95900000000000007         -7.0330892630679364E-025
  0.96200000000000019          1.8010925604572971E-025
  0.96500000000000008          1.2852082029821140E-024
  0.96800000000000019          2.5381029689855504E-024
  0.97100000000000009          3.8275214291259955E-024
  0.97400000000000020          5.0082819672786343E-024
  0.97700000000000009          5.9096514021940420E-024
  0.98000000000000020          6.3488523422506984E-024
  0.98300000000000010          6.1494640409707082E-024
  0.98600000000000021          5.1637463411841076E-024
  0.98900000000000010          3.2973282987572938E-024
  0.99200000000000021          5.3397024254291659E-025
  0.99500000000000011         -3.0423155327187138E-024
  0.99800000000000022         -7.2311337359413382E-024
   1.0010000000000001         -1.1708803537609474E-023
   1.0040000000000002         -1.6033694184731019E-023
   1.0070000000000001         -1.9666389018023076E-023
   1.0100000000000000         -2.2005920857723926E-023
   1.0130000000000001         -2.2442320439977313E-023
   1.0160000000000000         -2.0422942592981120E-023
   1.0190000000000001         -1.5529499440626155E-023
   1.0220000000000000         -7.5591597844469143E-024
   1.0250000000000001          3.3980030372466974E-024
   1.0280000000000000          1.6894454816391399E-023
   1.0310000000000001          3.2084040163665729E-023
   1.0340000000000000          4.7714737968309926E-023
   1.0370000000000001          6.2163267402658732E-023
   1.0400000000000000          7.3519857098493690E-023
   1.0430000000000001          7.9724606457284523E-023
   1.0460000000000000          7.8753987314937477E-023
   1.0490000000000002          6.8849815735608940E-023
   1.0520000000000000          4.8776525058637996E-023
   1.0550000000000002          1.8085077393017564E-023
   1.0580000000000001         -2.2641548284826047E-023
   1.0610000000000002         -7.1591780420624135E-023
   1.0640000000000001         -1.2561223579849400E-022
   1.0670000000000002         -1.8020855705582661E-022
   1.0700000000000001         -2.2968653310968862E-022
   1.0730000000000002         -2.6745600874699902E-022
   1.0760000000000001         -2.8650089222336851E-022
   1.0790000000000002         -2.8001108303495823E-022
   1.0820000000000001         -2.4214380678835117E-022
   1.0850000000000002         -1.6887300821068632E-022
   1.0880000000000001         -5.8856667030128242E-023
   1.0910000000000002          8.5762974226523693E-023
   1.0940000000000001          2.5872137552823645E-022
   1.0970000000000002          4.4926035106255656E-022
