 -0.39999999999999997          0.0000000000000000     
 -0.39699999999999996          0.0000000000000000     
 -0.39399999999999996          0.0000000000000000     
 -0.39099999999999996          0.0000000000000000     
 -0.38799999999999996          0.0000000000000000     
 -0.38499999999999995          0.0000000000000000     
 -0.38199999999999995          0.0000000000000000     
 -0.37899999999999995          0.0000000000000000     
 -0.37599999999999995          0.0000000000000000     
 -0.37299999999999994          0.0000000000000000     
 -0.37000000000000000          0.0000000000000000     
 -0.36699999999999999          0.0000000000000000     
 -0.36399999999999999          0.0000000000000000     
 -0.36099999999999999          0.0000000000000000     
 -0.35799999999999998          0.0000000000000000     
 -0.35499999999999998          0.0000000000000000     
 -0.35199999999999998          0.0000000000000000     
 -0.34899999999999998          0.0000000000000000     
 -0.34599999999999997          0.0000000000000000     
 -0.34299999999999997          0.0000000000000000     
 -0.33999999999999997          0.0000000000000000     
 -0.33699999999999997          0.0000000000000000     
 -0.33399999999999996          0.0000000000000000     
 -0.33099999999999996          0.0000000000000000     
 -0.32799999999999996          0.0000000000000000     
 -0.32499999999999996          0.0000000000000000     
 -0.32199999999999995          0.0000000000000000     
 -0.31899999999999995          0.0000000000000000     
 -0.31599999999999995          0.0000000000000000     
 -0.31299999999999994          0.0000000000000000     
 -0.30999999999999994          0.0000000000000000     
 -0.30699999999999994          0.0000000000000000     
 -0.30399999999999994          0.0000000000000000     
 -0.30099999999999993          0.0000000000000000     
 -0.29799999999999993          0.0000000000000000     
 -0.29499999999999998          0.0000000000000000     
 -0.29199999999999998          0.0000000000000000     
 -0.28899999999999998          0.0000000000000000     
 -0.28599999999999998          0.0000000000000000     
 -0.28299999999999997          0.0000000000000000     
 -0.27999999999999997          0.0000000000000000     
 -0.27699999999999997          0.0000000000000000     
 -0.27399999999999997          0.0000000000000000     
 -0.27099999999999996          0.0000000000000000     
 -0.26799999999999996          0.0000000000000000     
 -0.26499999999999996          0.0000000000000000     
 -0.26199999999999996          0.0000000000000000     
 -0.25899999999999995          0.0000000000000000     
 -0.25599999999999995          0.0000000000000000     
 -0.25300000000000000          0.0000000000000000     
 -0.24999999999999997          3.4941880256341865E-041
 -0.24699999999999997         -1.1749940778659922E-039
 -0.24399999999999997          2.0452545875580407E-041
 -0.24099999999999996          6.7212887708080292E-039
 -0.23799999999999996         -1.3226056347298948E-038
 -0.23499999999999996         -3.0101047206005545E-038
 -0.23199999999999996          8.5467003102518259E-038
 -0.22899999999999995          1.1712819060300989E-037
 -0.22599999999999995         -4.4479474674969849E-037
 -0.22299999999999998         -2.8155736430717975E-037
 -0.21999999999999997          1.9969662716328872E-036
 -0.21699999999999997          4.0128276321416331E-037
 -0.21399999999999997         -7.9763321892600898E-036
 -0.21099999999999997          6.5434959837974374E-037
 -0.20799999999999996          2.9036441000138158E-035
 -0.20499999999999996         -7.4891226055339262E-036
 -0.20199999999999996         -9.7714967168629800E-035
 -0.19899999999999995          3.3276816036201983E-035
 -0.19599999999999995          3.0590314857977474E-034
 -0.19299999999999995         -1.0186650701460676E-034
 -0.18999999999999997         -8.8886400502903717E-034
 -0.18699999999999997          2.0962296125726630E-034
 -0.18399999999999997          2.3648252926763594E-033
 -0.18099999999999997         -1.1417065621130085E-034
 -0.17799999999999996         -5.5777868301289977E-033
 -0.17499999999999996         -1.3447159666639233E-033
 -0.17199999999999996          1.0816512110690752E-032
 -0.16899999999999996          7.5363501756665468E-033
 -0.16599999999999995         -1.3355869469528147E-032
 -0.16299999999999995         -2.3762840924836700E-032
 -0.15999999999999998         -9.8222853268840267E-033
 -0.15699999999999997          4.3651330875609440E-032
 -0.15399999999999997          1.2309688963472294E-031
 -0.15099999999999997          1.1989822473884151E-032
 -0.14799999999999996         -4.2490874438189648E-031
 -0.14499999999999996         -4.5127949064686465E-031
 -0.14199999999999996          8.3257756002842455E-031
 -0.13899999999999996          1.9708501449929476E-030
 -0.13599999999999995         -2.6747950134241000E-031
 -0.13299999999999995         -5.0495197270020701E-030
 -0.12999999999999995         -4.8526406700751311E-030
 -0.12699999999999995          6.3011819936280383E-030
 -0.12399999999999994          2.0000210221451626E-029
 -0.12099999999999994          1.0659834696315663E-029
 -0.11799999999999994         -3.8626408893748078E-029
 -0.11499999999999994         -8.0894115759350810E-029
 -0.11199999999999993         -3.0924812382952057E-030
 -0.10899999999999999          2.1006402558322451E-028
 -0.10599999999999998          2.7957049315034214E-028
 -0.10299999999999998         -1.7006150442032296E-028
  -9.9999999999999978E-002    -9.2423274449705825E-028
  -9.6999999999999975E-002    -8.2261663079248499E-028
  -9.3999999999999972E-002     1.1619917173462010E-027
  -9.0999999999999970E-002     3.6752290350936589E-027
  -8.7999999999999967E-002     2.3125956819232775E-027
  -8.4999999999999964E-002    -5.8790237121028557E-027
  -8.1999999999999962E-002    -1.4203659736488975E-026
  -7.8999999999999959E-002    -5.8843519254793080E-027
  -7.5999999999999956E-002     2.6443487730919506E-026
  -7.2999999999999954E-002     5.2858338760116087E-026
  -6.9999999999999951E-002     1.3328298935622661E-026
  -6.6999999999999948E-002    -1.0797162294505300E-025
  -6.3999999999999946E-002    -1.9317751165967595E-025
  -6.0999999999999943E-002    -3.1447407654050611E-026
  -5.7999999999999940E-002     4.1434511200538597E-025
  -5.4999999999999938E-002     7.0578790939820829E-025
  -5.1999999999999935E-002     9.7616771106721897E-026
  -4.8999999999999932E-002    -1.5151902485355216E-024
  -4.5999999999999985E-002    -2.5719386844473418E-024
  -4.2999999999999983E-002    -4.5954362804204862E-025
  -3.9999999999999980E-002     5.2595122153593522E-024
  -3.6999999999999977E-002     9.3290471154212108E-024
  -3.3999999999999975E-002     2.6232904053888814E-024
  -3.0999999999999972E-002    -1.7226611832085694E-023
  -2.7999999999999969E-002    -3.3459004110969030E-023
  -2.4999999999999967E-002    -1.4464941276714510E-023
  -2.1999999999999964E-002     5.2352815022500816E-023
  -1.8999999999999961E-002     1.1709250596157228E-022
  -1.5999999999999959E-002     7.2774548742080037E-023
  -1.2999999999999956E-002    -1.4218971456156293E-022
  -9.9999999999999534E-003    -3.9370843448024444E-022
  -6.9999999999999507E-003    -3.3269967746492001E-022
  -3.9999999999999480E-003     3.1554181753580758E-022
  -9.9999999999994538E-004     1.2476229071590389E-021
   2.0000000000000573E-003     1.3843276338220436E-021
   5.0000000000000600E-003    -3.9069409435057880E-022
   8.0000000000000626E-003    -3.6261644374541652E-021
   1.1000000000000065E-002    -5.2379926417527126E-021
   1.4000000000000068E-002    -1.0915336056622018E-021
   1.7000000000000015E-002     9.2344136552630763E-021
   2.0000000000000018E-002     1.7896637768098606E-020
   2.3000000000000020E-002     1.1009769558259500E-020
   2.6000000000000023E-002    -1.8512598097983312E-020
   2.9000000000000026E-002    -5.4288242828824893E-020
   3.2000000000000028E-002    -5.4610275503361489E-020
   3.5000000000000031E-002     1.7528927952669166E-020
   3.8000000000000034E-002     1.4103519124964477E-019
   4.1000000000000036E-002     2.0696296098191122E-019
   4.4000000000000039E-002     7.3187248806407276E-020
   4.7000000000000042E-002    -2.8682136347387589E-019
   5.0000000000000044E-002    -6.4100536685202170E-019
   5.3000000000000047E-002    -5.4456328636969239E-019
   5.6000000000000050E-002     3.1122635925556234E-019
   5.9000000000000052E-002     1.6008122862027577E-018
   6.2000000000000055E-002     2.1832887002123373E-018
   6.5000000000000058E-002     7.2787864447023474E-019
   6.8000000000000060E-002    -2.8977937223846456E-018
   7.1000000000000063E-002    -6.4413168029780607E-018
   7.4000000000000066E-002    -5.8051464804091437E-018
   7.7000000000000068E-002     1.8871819229073399E-018
   8.0000000000000016E-002     1.4087594443209715E-017
   8.3000000000000018E-002     2.1215915209189594E-017
   8.6000000000000021E-002     1.1421854893299783E-017
   8.9000000000000024E-002    -1.8521630766062076E-017
   9.2000000000000026E-002    -5.3141267015950547E-017
   9.5000000000000029E-002    -6.0178024657365868E-017
   9.8000000000000032E-002    -1.1247989896264898E-017
  0.10100000000000003          8.6466192331925577E-017
  0.10400000000000004          1.7174503268929784E-016
  0.10700000000000004          1.5162522047402044E-016
  0.11000000000000004         -2.9868008983677844E-017
  0.11300000000000004         -3.1245325047179575E-016
  0.11600000000000005         -4.9892710012382891E-016
  0.11900000000000005         -3.5010412770775979E-016
  0.12200000000000005          2.2083758877298861E-016
  0.12500000000000006          9.7250296475630073E-016
  0.12800000000000006          1.3485901976762629E-015
  0.13100000000000006          7.7953031675925360E-016
  0.13400000000000006         -8.2776941462464188E-016
  0.13700000000000007         -2.7313956234015021E-015
  0.14000000000000007         -3.5046864064847774E-015
  0.14300000000000007         -1.8398593943756462E-015
  0.14600000000000007          2.3193195122357407E-015
  0.14900000000000008          7.0669184528229746E-015
  0.15200000000000008          9.0145597838469941E-015
  0.15500000000000008          5.1466048874809143E-015
  0.15800000000000008         -4.7388805952348574E-015
  0.16100000000000009         -1.6562571174268287E-014
  0.16400000000000009         -2.2932617624916590E-014
  0.16700000000000009         -1.6817939027393173E-014
  0.17000000000000010          3.5996186900591750E-015
  0.17300000000000010          3.1719107305174394E-014
  0.17600000000000010          5.3552967761783575E-014
  0.17899999999999999          5.3587122952700117E-014
  0.18200000000000000          2.3212693421016735E-014
  0.18500000000000000         -3.2546071897414582E-014
  0.18800000000000000         -9.4064597188380619E-014
  0.19100000000000000         -1.3336562415912604E-013
  0.19400000000000001         -1.2537472356054837E-013
  0.19700000000000001         -5.9346523160054774E-014
  0.20000000000000001          5.4506479629118007E-014
  0.20300000000000001          1.8584104486190681E-013
  0.20600000000000002          2.9190301769568402E-013
  0.20900000000000002          3.2929003594721172E-013
  0.21200000000000002          2.6642971262865182E-013
  0.21500000000000002          9.4219771214996074E-014
  0.21800000000000003         -1.6700687625722378E-013
  0.22100000000000003         -4.6606678999421926E-013
  0.22400000000000003         -7.2711738025139069E-013
  0.22700000000000004         -8.6446728745921622E-013
  0.23000000000000004         -8.0413352494947972E-013
  0.23300000000000004         -5.0661663184511161E-013
  0.23600000000000004          1.6498004096613611E-014
  0.23900000000000005          6.9781768053049850E-013
  0.24200000000000005          1.4221818174332605E-012
  0.24500000000000005          2.0434865069631642E-012
  0.24800000000000005          2.4048922545905102E-012
  0.25100000000000006          2.3598696174609167E-012
  0.25400000000000006          1.7959443196539006E-012
  0.25700000000000006          6.6419171364662399E-013
  0.26000000000000006         -9.8715694455886214E-013
  0.26300000000000007         -2.9850714301341420E-012
  0.26600000000000007         -5.0260960628561488E-012
  0.26900000000000007         -6.7060929783450274E-012
  0.27200000000000008         -7.5865971805977323E-012
  0.27500000000000008         -7.2834026982719738E-012
  0.27800000000000008         -5.5531474224083185E-012
  0.28100000000000008         -2.3552887550528302E-012
  0.28400000000000009          2.1211731070137239E-012
  0.28700000000000009          7.4635411281546978E-012
  0.29000000000000009          1.3064752386590880E-011
  0.29300000000000009          1.8170383197461084E-011
  0.29600000000000010          2.1945433270550127E-011
  0.29900000000000010          2.3566142858759927E-011
  0.30200000000000010          2.2336221446343062E-011
  0.30499999999999999          1.7813782293731461E-011
  0.30800000000000000          9.9261395203544972E-012
  0.31100000000000000         -9.5235461266852221E-013
  0.31400000000000000         -1.3973059934791882E-011
  0.31700000000000000         -2.7839464020868748E-011
  0.32000000000000001         -4.0882015274037924E-011
  0.32300000000000001         -5.1178117410888305E-011
  0.32600000000000001         -5.6716999142961346E-011
  0.32900000000000001         -5.5608401126165558E-011
  0.33200000000000002         -4.6322307556092771E-011
  0.33500000000000002         -2.7935306975675275E-011
  0.33800000000000002         -3.4687552851547002E-013
  0.34100000000000003          3.5564216274186690E-011
  0.34400000000000003          7.7861716014406719E-011
  0.34700000000000003          1.2355397209472533E-010
  0.35000000000000003          1.6867183462069928E-010
  0.35300000000000004          2.0841338180332313E-010
  0.35600000000000004          2.3734883040310525E-010
  0.35900000000000004          2.4967675758154526E-010
  0.36200000000000004          2.3950543509277039E-010
  0.36500000000000005          2.0112532382293682E-010
  0.36800000000000005          1.2923735951778124E-010
  0.37100000000000005          1.9102942814097468E-011
  0.37400000000000005         -1.3339478308136985E-010
  0.37700000000000006         -3.3179777882718380E-010
  0.38000000000000006         -5.7922066801050249E-010
  0.38300000000000006         -8.7860804115173132E-010
  0.38600000000000007         -1.2331291290184573E-009
  0.38900000000000007         -1.6466741988697203E-009
  0.39200000000000007         -2.1244558672366757E-009
  0.39500000000000007         -2.6736835793614799E-009
  0.39800000000000008         -3.3042757943642166E-009
  0.40100000000000008         -4.0295481262215222E-009
  0.40400000000000008         -4.8669586080016058E-009
  0.40700000000000008         -5.8387756625468391E-009
  0.41000000000000009         -6.9727077981915798E-009
  0.41300000000000009         -8.3026063316734126E-009
  0.41600000000000009         -9.8689775076979264E-009
  0.41900000000000009         -1.1719524604163437E-008
  0.42200000000000010         -1.3909646945156317E-008
  0.42500000000000010         -1.6503070302767515E-008
  0.42800000000000010         -1.9572511794460546E-008
  0.43100000000000011         -2.3200392434627582E-008
  0.43400000000000000         -2.7479918776319992E-008
  0.43700000000000000         -3.2516081637956305E-008
  0.44000000000000000         -3.8426839538556719E-008
  0.44300000000000000         -4.5344680472044689E-008
  0.44600000000000001         -5.3418702500808145E-008
  0.44900000000000001         -6.2815857443172623E-008
  0.45200000000000001         -7.3723746276572137E-008
  0.45500000000000002         -8.6352822149539864E-008
  0.45800000000000002         -1.0093828449937166E-007
  0.46100000000000002         -1.1774366314678752E-007
  0.46400000000000002         -1.3706313739808453E-007
  0.46700000000000003         -1.5922418317592162E-007
  0.47000000000000003         -1.8459017451872362E-007
  0.47300000000000003         -2.1356404191491812E-007
  0.47600000000000003         -2.4658913192449756E-007
  0.47900000000000004         -2.8415477528851787E-007
  0.48200000000000004         -3.2679672766610864E-007
  0.48500000000000004         -3.7509756398074373E-007
  0.48800000000000004         -4.2968911791193876E-007
  0.49100000000000005         -4.9125807854247413E-007
  0.49400000000000005         -5.6054404676247151E-007
  0.49700000000000005         -6.3833768745361898E-007
  0.50000000000000000         -7.2548462406608339E-007
  0.50300000000000011         -8.2288254315093437E-007
  0.50600000000000001         -9.3148038183575119E-007
  0.50900000000000012         -1.0522836156593726E-006
  0.51200000000000001         -1.1863310605242166E-006
  0.51500000000000012         -1.3347227361954954E-006
  0.51800000000000002         -1.4985810488122294E-006
  0.52100000000000013         -1.6790693266415229E-006
  0.52400000000000002         -1.8773743425102822E-006
  0.52700000000000014         -2.0946850349723792E-006
  0.53000000000000003         -2.3322118711351732E-006
  0.53300000000000014         -2.5911570430448699E-006
  0.53600000000000003         -2.8726825178886837E-006
  0.53900000000000015         -3.1779199979688406E-006
  0.54200000000000004         -3.5079498503420608E-006
  0.54500000000000015         -3.8637657764683327E-006
  0.54800000000000004         -4.2462615085934203E-006
  0.55100000000000016         -4.6562180882579105E-006
  0.55400000000000005         -5.0942472337601748E-006
  0.55700000000000016         -5.5607858978374269E-006
  0.56000000000000005         -6.0560741618163561E-006
  0.56299999999999994         -6.5801069244385734E-006
  0.56600000000000006         -7.1326613133068310E-006
  0.56899999999999995         -7.7130996052799927E-006
  0.57200000000000006         -8.3205686982008664E-006
  0.57499999999999996         -8.9538008301045285E-006
  0.57800000000000007         -9.6111282216104159E-006
  0.58099999999999996         -1.0290401776817292E-005
  0.58400000000000007         -1.0989211105341107E-005
  0.58699999999999997         -1.1704547824665690E-005
  0.59000000000000008         -1.2432818748418375E-005
  0.59299999999999997         -1.3170132701474845E-005
  0.59600000000000009         -1.3911765877121999E-005
  0.59899999999999998         -1.4652849368443354E-005
  0.60200000000000009         -1.5387597894736359E-005
  0.60500000000000020         -1.6109950881526229E-005
  0.60800000000000010         -1.6813102379375170E-005
  0.61100000000000021         -1.7489977844039249E-005
  0.61400000000000010         -1.8132881002818440E-005
  0.61700000000000021         -1.8733752837326975E-005
  0.62000000000000011         -1.9284111860239554E-005
  0.62300000000000022         -1.9774911425202004E-005
  0.62600000000000011         -2.0197163157041544E-005
  0.62900000000000000         -2.0541432312485664E-005
  0.63200000000000012         -2.0798290002442802E-005
  0.63500000000000001         -2.0958357482638053E-005
  0.63800000000000012         -2.1012173736078473E-005
  0.64100000000000001         -2.0950503619238903E-005
  0.64400000000000013         -2.0764230789392927E-005
  0.64700000000000002         -2.0444674247400797E-005
  0.65000000000000013         -1.9984023045669770E-005
  0.65300000000000002         -1.9375042380288610E-005
  0.65600000000000014         -1.8611212835967243E-005
  0.65900000000000003         -1.7686490984618084E-005
  0.66200000000000014         -1.6596738883778131E-005
  0.66500000000000004         -1.5338473803099918E-005
  0.66800000000000015         -1.3909294738487831E-005
  0.67100000000000004         -1.2308681619260112E-005
  0.67400000000000015         -1.0537693240275054E-005
  0.67700000000000005         -8.5987835732665420E-006
  0.68000000000000016         -6.4957074675191427E-006
  0.68300000000000005         -4.2344689918170164E-006
  0.68600000000000017         -1.8229252252169123E-006
  0.68900000000000006          7.2966458986316359E-007
  0.69200000000000017          3.4119965697439112E-006
  0.69500000000000006          6.2111891757270738E-006
  0.69800000000000018          9.1123722095099635E-006
  0.70100000000000007          1.2099313409036218E-005
  0.70400000000000018          1.5154068575663585E-005
  0.70700000000000007          1.8257009336507788E-005
  0.71000000000000019          2.1387363425441942E-005
  0.71300000000000008          2.4523343293600326E-005
  0.71600000000000019          2.7642283122897120E-005
  0.71900000000000008          3.0720253598137746E-005
  0.72200000000000020          3.3733351586404857E-005
  0.72500000000000009          3.6657266083912755E-005
  0.72800000000000020          3.9467373663075999E-005
  0.73100000000000009          4.2139266230803873E-005
  0.73400000000000021          4.4649010809390477E-005
  0.73700000000000010          4.6973739070467870E-005
  0.74000000000000021          4.9091443538949920E-005
  0.74300000000000010          5.0981182181670844E-005
  0.74600000000000022          5.2623920994270866E-005
  0.74900000000000011          5.4002201593570981E-005
  0.75200000000000022          5.5100155483912804E-005
  0.75500000000000012          5.5904421460316766E-005
  0.75800000000000001          5.6404123335146591E-005
  0.76100000000000012          5.6591051532504589E-005
  0.76400000000000001          5.6459213364677030E-005
  0.76700000000000013          5.6005887014710058E-005
  0.77000000000000002          5.5231001503410129E-005
  0.77300000000000013          5.4137301009631595E-005
  0.77600000000000002          5.2729990749572961E-005
  0.77900000000000014          5.1017572488110943E-005
  0.78200000000000003          4.9011666466056444E-005
  0.78500000000000014          4.6725895532104673E-005
  0.78800000000000003          4.4176382608004705E-005
  0.79100000000000015          4.1382503015664350E-005
  0.79400000000000004          3.8365196967132833E-005
  0.79700000000000015          3.5146731605577828E-005
  0.80000000000000004          3.1751529963740516E-005
  0.80300000000000016          2.8206354188670591E-005
  0.80600000000000005          2.4537818710521086E-005
  0.80900000000000016          2.0773535125994124E-005
  0.81200000000000006          1.6943131419624417E-005
  0.81500000000000017          1.3074787230500083E-005
  0.81800000000000006          9.1969483303995240E-006
  0.82100000000000017          5.3376760530236085E-006
  0.82400000000000007          1.5250976901948039E-006
  0.82700000000000018         -2.2136742143771477E-006
  0.83000000000000007         -5.8532377280843541E-006
  0.83300000000000018         -9.3695550599127370E-006
  0.83600000000000008         -1.2740198773645635E-005
  0.83900000000000019         -1.5944148632017320E-005
  0.84200000000000008         -1.8963735903794995E-005
  0.84500000000000020         -2.1781565229654467E-005
  0.84800000000000009         -2.4382997021306821E-005
  0.85100000000000020         -2.6756811340780384E-005
  0.85400000000000009         -2.8893847897271555E-005
  0.85700000000000021         -3.0786228910897100E-005
  0.86000000000000010         -3.2429671258111755E-005
  0.86300000000000021         -3.3822485122365262E-005
  0.86600000000000010         -3.4963999344252882E-005
  0.86900000000000022         -3.5855929791071089E-005
  0.87200000000000011         -3.6502894137181434E-005
  0.87500000000000022         -3.6911741830876891E-005
  0.87800000000000011         -3.7090288363192041E-005
  0.88100000000000001         -3.7047727008096735E-005
  0.88400000000000012         -3.6796159047411083E-005
  0.88700000000000001         -3.6347902871672577E-005
  0.89000000000000012         -3.5715827634659881E-005
  0.89300000000000002         -3.4914332636542820E-005
  0.89600000000000013         -3.3959491453259339E-005
  0.89900000000000002         -3.2866874091728529E-005
  0.90200000000000014         -3.1651690886421795E-005
  0.90500000000000003         -3.0330279725960944E-005
  0.90800000000000014         -2.8919430971088835E-005
  0.91100000000000003         -2.7434500195406147E-005
  0.91400000000000015         -2.5890447305766873E-005
  0.91700000000000004         -2.4302943592858114E-005
  0.92000000000000015         -2.2686815009990641E-005
  0.92300000000000004         -2.1054975811349413E-005
  0.92600000000000016         -1.9420130682351734E-005
  0.92900000000000005         -1.7795082056202024E-005
  0.93200000000000016         -1.6190842936840648E-005
  0.93500000000000005         -1.4616515640066111E-005
  0.93800000000000017         -1.3081454347523857E-005
  0.94100000000000006         -1.1594370430941026E-005
  0.94400000000000017         -1.0161894435613756E-005
  0.94700000000000006         -8.7892994392548994E-006
  0.95000000000000018         -7.4822370433100724E-006
  0.95300000000000007         -6.2449200580823856E-006
  0.95600000000000018         -5.0796063075563725E-006
  0.95900000000000007         -3.9881394988764232E-006
  0.96200000000000019         -2.9727519425338468E-006
  0.96500000000000008         -2.0339809780026319E-006
  0.96800000000000019         -1.1709490456255847E-006
  0.97100000000000009         -3.8303188536765986E-007
  0.97400000000000020          3.3056775697328595E-007
  0.97700000000000009          9.7214950163026205E-007
  0.98000000000000020          1.5447186552048789E-006
  0.98300000000000010          2.0503205430495173E-006
  0.98600000000000021          2.4916644824315420E-006
  0.98900000000000010          2.8725028935581187E-006
  0.99200000000000021          3.1966357702798584E-006
  0.99500000000000011          3.4670194081468062E-006
  0.99800000000000022          3.6873846598622143E-006
   1.0010000000000001          3.8620875356386697E-006
   1.0040000000000002          3.9946065535022416E-006
   1.0070000000000001          4.0881283530507717E-006
   1.0100000000000000          4.1465469483174786E-006
   1.0130000000000001          4.1738810576200224E-006
   1.0160000000000000          4.1732034619342366E-006
   1.0190000000000001          4.1473594296579654E-006
   1.0220000000000000          4.0999504717155829E-006
   1.0250000000000001          4.0340495610386352E-006
   1.0280000000000000          3.9518968030297323E-006
   1.0310000000000001          3.8559644403723817E-006
   1.0340000000000000          3.7491979065013760E-006
   1.0370000000000001          3.6335616949352374E-006
   1.0400000000000000          3.5106314843399869E-006
   1.0430000000000001          3.3823967539812699E-006
   1.0460000000000000          3.2508687604332216E-006
   1.0490000000000002          3.1171838008803125E-006
   1.0520000000000000          2.9823940323124963E-006
   1.0550000000000002          2.8479860619023156E-006
   1.0580000000000001          2.7150666899742673E-006
   1.0610000000000002          2.5839572264255441E-006
   1.0640000000000001          2.4553363694634152E-006
   1.0670000000000002          2.3302801486188879E-006
   1.0700000000000001          2.2091411092171976E-006
   1.0730000000000002          2.0919091628678245E-006
   1.0760000000000001          1.9791807951888176E-006
   1.0790000000000002          1.8714633264304358E-006
   1.0820000000000001          1.7684758228710326E-006
   1.0850000000000002          1.6701062043620839E-006
   1.0880000000000001          1.5768682138912871E-006
   1.0910000000000002          1.4887553271459765E-006
   1.0940000000000001          1.4052086041271390E-006
   1.0970000000000002          1.3262478326211017E-006
