 -0.39999999999999997          0.0000000000000000     
 -0.39699999999999996          0.0000000000000000     
 -0.39399999999999996          0.0000000000000000     
 -0.39099999999999996          0.0000000000000000     
 -0.38799999999999996          0.0000000000000000     
 -0.38499999999999995          0.0000000000000000     
 -0.38199999999999995          0.0000000000000000     
 -0.37899999999999995          0.0000000000000000     
 -0.37599999999999995          0.0000000000000000     
 -0.37299999999999994          0.0000000000000000     
 -0.37000000000000000          0.0000000000000000     
 -0.36699999999999999          0.0000000000000000     
 -0.36399999999999999          0.0000000000000000     
 -0.36099999999999999          0.0000000000000000     
 -0.35799999999999998          0.0000000000000000     
 -0.35499999999999998          0.0000000000000000     
 -0.35199999999999998          0.0000000000000000     
 -0.34899999999999998          0.0000000000000000     
 -0.34599999999999997          0.0000000000000000     
 -0.34299999999999997          0.0000000000000000     
 -0.33999999999999997          0.0000000000000000     
 -0.33699999999999997          0.0000000000000000     
 -0.33399999999999996          0.0000000000000000     
 -0.33099999999999996          0.0000000000000000     
 -0.32799999999999996          0.0000000000000000     
 -0.32499999999999996          0.0000000000000000     
 -0.32199999999999995          0.0000000000000000     
 -0.31899999999999995          0.0000000000000000     
 -0.31599999999999995          0.0000000000000000     
 -0.31299999999999994          0.0000000000000000     
 -0.30999999999999994          0.0000000000000000     
 -0.30699999999999994          0.0000000000000000     
 -0.30399999999999994          0.0000000000000000     
 -0.30099999999999993          0.0000000000000000     
 -0.29799999999999993          0.0000000000000000     
 -0.29499999999999998          0.0000000000000000     
 -0.29199999999999998          0.0000000000000000     
 -0.28899999999999998          0.0000000000000000     
 -0.28599999999999998          0.0000000000000000     
 -0.28299999999999997          0.0000000000000000     
 -0.27999999999999997          0.0000000000000000     
 -0.27699999999999997          0.0000000000000000     
 -0.27399999999999997          0.0000000000000000     
 -0.27099999999999996          0.0000000000000000     
 -0.26799999999999996          0.0000000000000000     
 -0.26499999999999996          0.0000000000000000     
 -0.26199999999999996          0.0000000000000000     
 -0.25899999999999995          0.0000000000000000     
 -0.25599999999999995          0.0000000000000000     
 -0.25300000000000000          0.0000000000000000     
 -0.24999999999999997          0.0000000000000000     
 -0.24699999999999997          0.0000000000000000     
 -0.24399999999999997          0.0000000000000000     
 -0.24099999999999996          0.0000000000000000     
 -0.23799999999999996          0.0000000000000000     
 -0.23499999999999996          0.0000000000000000     
 -0.23199999999999996          0.0000000000000000     
 -0.22899999999999995          0.0000000000000000     
 -0.22599999999999995          0.0000000000000000     
 -0.22299999999999998          0.0000000000000000     
 -0.21999999999999997          0.0000000000000000     
 -0.21699999999999997          0.0000000000000000     
 -0.21399999999999997          0.0000000000000000     
 -0.21099999999999997          0.0000000000000000     
 -0.20799999999999996          0.0000000000000000     
 -0.20499999999999996          0.0000000000000000     
 -0.20199999999999996          0.0000000000000000     
 -0.19899999999999995          0.0000000000000000     
 -0.19599999999999995          0.0000000000000000     
 -0.19299999999999995          0.0000000000000000     
 -0.18999999999999997          0.0000000000000000     
 -0.18699999999999997          0.0000000000000000     
 -0.18399999999999997          0.0000000000000000     
 -0.18099999999999997          0.0000000000000000     
 -0.17799999999999996          0.0000000000000000     
 -0.17499999999999996          0.0000000000000000     
 -0.17199999999999996          0.0000000000000000     
 -0.16899999999999996          0.0000000000000000     
 -0.16599999999999995          0.0000000000000000     
 -0.16299999999999995          0.0000000000000000     
 -0.15999999999999998          0.0000000000000000     
 -0.15699999999999997          0.0000000000000000     
 -0.15399999999999997          0.0000000000000000     
 -0.15099999999999997          0.0000000000000000     
 -0.14799999999999996          0.0000000000000000     
 -0.14499999999999996          0.0000000000000000     
 -0.14199999999999996          0.0000000000000000     
 -0.13899999999999996          0.0000000000000000     
 -0.13599999999999995          0.0000000000000000     
 -0.13299999999999995          0.0000000000000000     
 -0.12999999999999995          0.0000000000000000     
 -0.12699999999999995          0.0000000000000000     
 -0.12399999999999994          0.0000000000000000     
 -0.12099999999999994          0.0000000000000000     
 -0.11799999999999994          0.0000000000000000     
 -0.11499999999999994          0.0000000000000000     
 -0.11199999999999993          0.0000000000000000     
 -0.10899999999999999          0.0000000000000000     
 -0.10599999999999998          0.0000000000000000     
 -0.10299999999999998          0.0000000000000000     
  -9.9999999999999978E-002     0.0000000000000000     
  -9.6999999999999975E-002     0.0000000000000000     
  -9.3999999999999972E-002     0.0000000000000000     
  -9.0999999999999970E-002     0.0000000000000000     
  -8.7999999999999967E-002     0.0000000000000000     
  -8.4999999999999964E-002     0.0000000000000000     
  -8.1999999999999962E-002     0.0000000000000000     
  -7.8999999999999959E-002     0.0000000000000000     
  -7.5999999999999956E-002     0.0000000000000000     
  -7.2999999999999954E-002     0.0000000000000000     
  -6.9999999999999951E-002     0.0000000000000000     
  -6.6999999999999948E-002     0.0000000000000000     
  -6.3999999999999946E-002     0.0000000000000000     
  -6.0999999999999943E-002     0.0000000000000000     
  -5.7999999999999940E-002     0.0000000000000000     
  -5.4999999999999938E-002     0.0000000000000000     
  -5.1999999999999935E-002     0.0000000000000000     
  -4.8999999999999932E-002     0.0000000000000000     
  -4.5999999999999985E-002     0.0000000000000000     
  -4.2999999999999983E-002     0.0000000000000000     
  -3.9999999999999980E-002     0.0000000000000000     
  -3.6999999999999977E-002     0.0000000000000000     
  -3.3999999999999975E-002     0.0000000000000000     
  -3.0999999999999972E-002     0.0000000000000000     
  -2.7999999999999969E-002     0.0000000000000000     
  -2.4999999999999967E-002     0.0000000000000000     
  -2.1999999999999964E-002     0.0000000000000000     
  -1.8999999999999961E-002     0.0000000000000000     
  -1.5999999999999959E-002     0.0000000000000000     
  -1.2999999999999956E-002     0.0000000000000000     
  -9.9999999999999534E-003     0.0000000000000000     
  -6.9999999999999507E-003     0.0000000000000000     
  -3.9999999999999480E-003     0.0000000000000000     
  -9.9999999999994538E-004     0.0000000000000000     
   2.0000000000000573E-003     0.0000000000000000     
   5.0000000000000600E-003     0.0000000000000000     
   8.0000000000000626E-003     0.0000000000000000     
   1.1000000000000065E-002     0.0000000000000000     
   1.4000000000000068E-002     0.0000000000000000     
   1.7000000000000015E-002     0.0000000000000000     
   2.0000000000000018E-002     0.0000000000000000     
   2.3000000000000020E-002     0.0000000000000000     
   2.6000000000000023E-002     0.0000000000000000     
   2.9000000000000026E-002     0.0000000000000000     
   3.2000000000000028E-002     0.0000000000000000     
   3.5000000000000031E-002     0.0000000000000000     
   3.8000000000000034E-002     0.0000000000000000     
   4.1000000000000036E-002     0.0000000000000000     
   4.4000000000000039E-002     0.0000000000000000     
   4.7000000000000042E-002     0.0000000000000000     
   5.0000000000000044E-002     0.0000000000000000     
   5.3000000000000047E-002     0.0000000000000000     
   5.6000000000000050E-002     0.0000000000000000     
   5.9000000000000052E-002     0.0000000000000000     
   6.2000000000000055E-002     0.0000000000000000     
   6.5000000000000058E-002     0.0000000000000000     
   6.8000000000000060E-002     0.0000000000000000     
   7.1000000000000063E-002     0.0000000000000000     
   7.4000000000000066E-002     0.0000000000000000     
   7.7000000000000068E-002     0.0000000000000000     
   8.0000000000000016E-002     0.0000000000000000     
   8.3000000000000018E-002     0.0000000000000000     
   8.6000000000000021E-002     0.0000000000000000     
   8.9000000000000024E-002     0.0000000000000000     
   9.2000000000000026E-002     0.0000000000000000     
   9.5000000000000029E-002     0.0000000000000000     
   9.8000000000000032E-002     0.0000000000000000     
  0.10100000000000003          0.0000000000000000     
  0.10400000000000004          0.0000000000000000     
  0.10700000000000004          0.0000000000000000     
  0.11000000000000004          0.0000000000000000     
  0.11300000000000004          0.0000000000000000     
  0.11600000000000005          0.0000000000000000     
  0.11900000000000005          0.0000000000000000     
  0.12200000000000005          0.0000000000000000     
  0.12500000000000006          0.0000000000000000     
  0.12800000000000006          0.0000000000000000     
  0.13100000000000006          0.0000000000000000     
  0.13400000000000006          0.0000000000000000     
  0.13700000000000007          0.0000000000000000     
  0.14000000000000007          0.0000000000000000     
  0.14300000000000007          0.0000000000000000     
  0.14600000000000007          0.0000000000000000     
  0.14900000000000008          0.0000000000000000     
  0.15200000000000008          0.0000000000000000     
  0.15500000000000008          0.0000000000000000     
  0.15800000000000008          0.0000000000000000     
  0.16100000000000009          0.0000000000000000     
  0.16400000000000009          0.0000000000000000     
  0.16700000000000009          0.0000000000000000     
  0.17000000000000010          0.0000000000000000     
  0.17300000000000010          0.0000000000000000     
  0.17600000000000010          0.0000000000000000     
  0.17899999999999999          0.0000000000000000     
  0.18200000000000000          0.0000000000000000     
  0.18500000000000000          0.0000000000000000     
  0.18800000000000000          0.0000000000000000     
  0.19100000000000000          0.0000000000000000     
  0.19400000000000001          0.0000000000000000     
  0.19700000000000001          0.0000000000000000     
  0.20000000000000001          0.0000000000000000     
  0.20300000000000001          0.0000000000000000     
  0.20600000000000002          0.0000000000000000     
  0.20900000000000002          0.0000000000000000     
  0.21200000000000002          0.0000000000000000     
  0.21500000000000002          0.0000000000000000     
  0.21800000000000003          0.0000000000000000     
  0.22100000000000003          0.0000000000000000     
  0.22400000000000003          0.0000000000000000     
  0.22700000000000004          0.0000000000000000     
  0.23000000000000004          0.0000000000000000     
  0.23300000000000004          0.0000000000000000     
  0.23600000000000004          0.0000000000000000     
  0.23900000000000005          0.0000000000000000     
  0.24200000000000005          0.0000000000000000     
  0.24500000000000005          0.0000000000000000     
  0.24800000000000005          0.0000000000000000     
  0.25100000000000006          0.0000000000000000     
  0.25400000000000006          0.0000000000000000     
  0.25700000000000006          0.0000000000000000     
  0.26000000000000006          0.0000000000000000     
  0.26300000000000007          0.0000000000000000     
  0.26600000000000007          0.0000000000000000     
  0.26900000000000007          0.0000000000000000     
  0.27200000000000008          0.0000000000000000     
  0.27500000000000008          0.0000000000000000     
  0.27800000000000008          0.0000000000000000     
  0.28100000000000008          0.0000000000000000     
  0.28400000000000009          0.0000000000000000     
  0.28700000000000009          0.0000000000000000     
  0.29000000000000009          0.0000000000000000     
  0.29300000000000009          0.0000000000000000     
  0.29600000000000010          0.0000000000000000     
  0.29900000000000010          0.0000000000000000     
  0.30200000000000010          0.0000000000000000     
  0.30499999999999999          0.0000000000000000     
  0.30800000000000000          0.0000000000000000     
  0.31100000000000000          0.0000000000000000     
  0.31400000000000000          0.0000000000000000     
  0.31700000000000000          0.0000000000000000     
  0.32000000000000001          0.0000000000000000     
  0.32300000000000001          0.0000000000000000     
  0.32600000000000001          0.0000000000000000     
  0.32900000000000001          0.0000000000000000     
  0.33200000000000002          0.0000000000000000     
  0.33500000000000002          0.0000000000000000     
  0.33800000000000002          0.0000000000000000     
  0.34100000000000003          0.0000000000000000     
  0.34400000000000003          0.0000000000000000     
  0.34700000000000003          0.0000000000000000     
  0.35000000000000003          0.0000000000000000     
  0.35300000000000004          0.0000000000000000     
  0.35600000000000004          0.0000000000000000     
  0.35900000000000004          0.0000000000000000     
  0.36200000000000004          0.0000000000000000     
  0.36500000000000005          0.0000000000000000     
  0.36800000000000005          0.0000000000000000     
  0.37100000000000005          0.0000000000000000     
  0.37400000000000005          0.0000000000000000     
  0.37700000000000006          0.0000000000000000     
  0.38000000000000006          0.0000000000000000     
  0.38300000000000006          0.0000000000000000     
  0.38600000000000007          0.0000000000000000     
  0.38900000000000007          0.0000000000000000     
  0.39200000000000007          0.0000000000000000     
  0.39500000000000007          0.0000000000000000     
  0.39800000000000008          0.0000000000000000     
  0.40100000000000008          0.0000000000000000     
  0.40400000000000008          0.0000000000000000     
  0.40700000000000008          0.0000000000000000     
  0.41000000000000009          0.0000000000000000     
  0.41300000000000009          0.0000000000000000     
  0.41600000000000009          0.0000000000000000     
  0.41900000000000009          0.0000000000000000     
  0.42200000000000010          0.0000000000000000     
  0.42500000000000010          0.0000000000000000     
  0.42800000000000010          0.0000000000000000     
  0.43100000000000011          0.0000000000000000     
  0.43400000000000000          0.0000000000000000     
  0.43700000000000000          0.0000000000000000     
  0.44000000000000000          0.0000000000000000     
  0.44300000000000000          0.0000000000000000     
  0.44600000000000001          0.0000000000000000     
  0.44900000000000001          0.0000000000000000     
  0.45200000000000001          0.0000000000000000     
  0.45500000000000002          0.0000000000000000     
  0.45800000000000002          0.0000000000000000     
  0.46100000000000002          0.0000000000000000     
  0.46400000000000002          0.0000000000000000     
  0.46700000000000003         -4.7098300038657849E-042
  0.47000000000000003          5.9024487529109777E-042
  0.47300000000000003          2.3834044613207074E-041
  0.47600000000000003         -3.2473379316648558E-041
  0.47900000000000004          5.6784818708935302E-042
  0.48200000000000004          4.3714147402660325E-040
  0.48500000000000004          8.7724990303930123E-040
  0.48800000000000004          9.6358617413652063E-040
  0.49100000000000005          1.0477492124894948E-040
  0.49400000000000005          4.6955857515929310E-040
  0.49700000000000005          4.0074296269937016E-041
  0.50000000000000000         -1.9963966363482949E-039
  0.50300000000000011         -1.0457811919663081E-038
  0.50600000000000001         -1.1026226516260403E-038
  0.50900000000000012         -6.1189483836020422E-039
  0.51200000000000001         -7.3170615888679206E-039
  0.51500000000000012          9.3032176901089888E-040
  0.51800000000000002          1.8097763794103077E-038
  0.52100000000000013          2.1100941420280504E-038
  0.52400000000000002          2.7967220524040045E-038
  0.52700000000000014          2.9180531661919783E-038
  0.53000000000000003          2.1037488695951807E-038
  0.53300000000000014          6.0917459123537189E-040
  0.53600000000000003         -2.9094667750168839E-038
  0.53900000000000015         -6.8616497493676884E-038
  0.54200000000000004         -1.0697699379107523E-037
  0.54500000000000015         -1.3240758153135355E-037
  0.54800000000000004         -1.2969217870950428E-037
  0.55100000000000016         -8.4150786096922391E-038
  0.55400000000000005          1.3138566381203097E-038
  0.55700000000000016          1.5986175886053984E-037
  0.56000000000000005          3.3688150515822451E-037
  0.56299999999999994          5.0546481978581452E-037
  0.56600000000000006          6.0920794056693156E-037
  0.56899999999999995          5.8213386202247065E-037
  0.57200000000000006          3.6351077007506967E-037
  0.57499999999999996         -8.1150228739949425E-038
  0.57800000000000007         -7.3632649069424210E-037
  0.58099999999999996         -1.5161784149776485E-036
  0.58400000000000007         -2.2546837756780465E-036
  0.58699999999999997         -2.7138476446360411E-036
  0.59000000000000008         -2.6180700502236634E-036
  0.59299999999999997         -1.7145044916960014E-036
  0.59600000000000009          1.4288956899721752E-037
  0.59899999999999998          2.9004198438036306E-036
  0.60200000000000009          6.2233903050490561E-036
  0.60500000000000020          9.4553480718839082E-036
  0.60800000000000010          1.1648129700032660E-035
  0.61100000000000021          1.1686347160685474E-035
  0.61400000000000010          8.5153068495101152E-036
  0.61700000000000021          1.4577112837113946E-036
  0.62000000000000011         -9.4266742145530696E-036
  0.62300000000000022         -2.3016596441773642E-035
  0.62600000000000011         -3.6942125739970022E-035
  0.62900000000000000         -4.7645067772130523E-035
  0.63200000000000012         -5.0780459529742904E-035
  0.63500000000000001         -4.2003653275753862E-035
  0.63800000000000012         -1.8104864724554263E-035
  0.64100000000000001          2.1652077227746594E-035
  0.64400000000000013          7.4242486252901628E-035
  0.64700000000000002          1.3199725211815274E-034
  0.65000000000000013          1.8251890687730247E-034
  0.65300000000000002          2.0975661913198651E-034
  0.65600000000000014          1.9645715444074722E-034
  0.65900000000000003          1.2795618892608362E-034
  0.66200000000000014         -3.0728242218281337E-036
  0.66500000000000004         -1.9168679682120835E-034
  0.66800000000000015         -4.1669085431523556E-034
  0.67100000000000004         -6.3896133409475764E-034
  0.67400000000000015         -8.0341520062309880E-034
  0.67700000000000005         -8.4562540587734873E-034
  0.68000000000000016         -7.0336336362842679E-034
  0.68300000000000005         -3.3229500729405280E-034
  0.68600000000000017          2.7623092635123534E-034
  0.68900000000000006          1.0786420848438558E-033
  0.69200000000000017          1.9682038287946588E-033
  0.69500000000000006          2.7743961367193058E-033
  0.69800000000000018          3.2767363094716543E-033
  0.70100000000000007          3.2354636832546316E-033
  0.70400000000000018          2.4385331691461344E-033
  0.70700000000000007          7.6051064011437902E-034
  0.71000000000000019         -1.7753755404256609E-033
  0.71300000000000008         -4.9447223385831890E-033
  0.71600000000000019         -8.2941901067551991E-033
  0.71900000000000008         -1.1153843318375338E-032
  0.72200000000000020         -1.2701694051805458E-032
  0.72500000000000009         -1.2085533709453911E-032
  0.72800000000000020         -8.5965396277513468E-033
  0.73100000000000009         -1.8760313459316664E-033
  0.73400000000000021          7.8770091561391215E-033
  0.73700000000000010          1.9741584561201339E-032
  0.74000000000000021          3.2003712720304462E-032
  0.74300000000000010          4.2226905204490799E-032
  0.74600000000000022          4.7499184197179174E-032
  0.74900000000000011          4.4867070388103736E-032
  0.75200000000000022          3.1931985615366574E-032
  0.75500000000000012          7.5425601971763681E-033
  0.75800000000000001         -2.7525518938242096E-032
  0.76100000000000012         -7.0044633544932588E-032
  0.76400000000000001         -1.1412394179312608E-031
  0.76700000000000013         -1.5146019832383835E-031
  0.77000000000000002         -1.7215604538479869E-031
  0.77300000000000013         -1.6613273730836868E-031
  0.77600000000000002         -1.2505698638432649E-031
  0.77900000000000014         -4.4573145453637094E-032
  0.78200000000000003          7.3493299901590499E-032
  0.78500000000000014          2.1939731628412824E-031
  0.78800000000000003          3.7468563978421928E-031
  0.79100000000000015          5.1281682825286942E-031
  0.79400000000000004          6.0152172742713659E-031
  0.79700000000000015          6.0701486867024400E-031
  0.80000000000000004          4.9984979024544849E-031
  0.80300000000000016          2.6184711563744252E-031
  0.80600000000000005         -1.0686069164081324E-031
  0.80900000000000016         -5.8192358879065614E-031
  0.81200000000000006         -1.1114483829706558E-030
  0.81500000000000017         -1.6166495598819198E-030
  0.81800000000000006         -1.9975799261884956E-030
  0.82100000000000017         -2.1444467794389732E-030
  0.82400000000000007         -1.9541909881833045E-030
  0.82700000000000018         -1.3509552311231471E-030
  0.83000000000000007         -3.0799610459971415E-031
  0.83300000000000018          1.1323785959509000E-030
  0.83600000000000008          2.8449102586991456E-030
  0.83900000000000019          4.6177107409135999E-030
  0.84200000000000008          6.1624256277606373E-030
  0.84500000000000020          7.1405251308113124E-030
  0.84800000000000009          7.2059398501914912E-030
  0.85100000000000020          6.0614862851693425E-030
  0.85400000000000009          3.5236190537695431E-030
  0.85700000000000021         -4.1298018158632591E-031
  0.86000000000000010         -5.5216760835072846E-030
  0.86300000000000021         -1.1312997882954874E-029
  0.86600000000000010         -1.7038003239218319E-029
  0.86900000000000022         -2.1734907305268790E-029
  0.87200000000000011         -2.4323492049545101E-029
  0.87500000000000022         -2.3745315088332057E-029
  0.87800000000000011         -1.9139918586250483E-029
  0.88100000000000001         -1.0039022919291442E-029
  0.88400000000000012          3.4470273084291139E-030
  0.88700000000000001          2.0481847995547543E-029
  0.89000000000000012          3.9428127293147093E-029
  0.89300000000000002          5.7876296802701725E-029
  0.89600000000000013          7.2800268216067440E-029
  0.89900000000000002          8.0850241804877421E-029
  0.90200000000000014          7.8774882521395787E-029
  0.90500000000000003          6.3943350795414692E-029
  0.90800000000000014          3.4915497082004821E-029
  0.91100000000000003         -8.0120501247345636E-030
  0.91400000000000015         -6.2370901822200671E-029
  0.91700000000000004         -1.2329028169067599E-028
  0.92000000000000015         -1.8355780782279404E-028
  0.92300000000000004         -2.3403886352856080E-028
  0.92600000000000016         -2.6448700216459668E-028
  0.92900000000000005         -2.6473096897515284E-028
  0.93200000000000016         -2.2616522091085413E-028
  0.93500000000000005         -1.4341223801832898E-028
  0.93800000000000017         -1.5963763551487812E-029
  0.94100000000000006          1.5043155368625604E-028
  0.94400000000000017          3.4289730720678995E-028
  0.94700000000000006          5.4132609145449409E-028
  0.95000000000000018          7.1925572544481553E-028
  0.95300000000000007          8.4585716076325821E-028
  0.95600000000000018          8.8904246102659935E-028
  0.95900000000000007          8.1956070419319707E-028
  0.96200000000000019          6.1577531510547396E-028
  0.96500000000000008          2.6865323830172118E-028
  0.96800000000000019         -2.1364964771462058E-028
  0.97100000000000009         -8.0232728495001616E-028
  0.97400000000000020         -1.4463237978888552E-027
  0.97700000000000009         -2.0732973458953710E-027
  0.98000000000000020         -2.5936610287583592E-027
  0.98300000000000010         -2.9079549738922673E-027
  0.98600000000000021         -2.9174353286277546E-027
  0.98900000000000010         -2.5373191081123466E-027
  0.99200000000000021         -1.7116263454661309E-027
  0.99500000000000011         -4.2811415488555230E-028
  0.99800000000000022          1.2685910917318579E-027
   1.0010000000000001          3.2678473467568100E-027
   1.0040000000000002          5.3899747684749247E-027
   1.0070000000000001          7.3913198631354275E-027
   1.0100000000000000          8.9788279224464575E-027
   1.0130000000000001          9.8346481712401218E-027
   1.0160000000000000          9.6502411143028516E-027
   1.0190000000000001          8.1680760159587879E-027
   1.0220000000000000          5.2276182072570783E-027
   1.0250000000000001          8.1094696566385677E-028
   1.0280000000000000         -4.9178092090420112E-027
   1.0310000000000001         -1.1585655025649703E-026
   1.0340000000000000         -1.8603002764821951E-026
   1.0370000000000001         -2.5180864441977435E-026
   1.0400000000000000         -3.0377055865959226E-026
   1.0430000000000001         -3.3173085363921045E-026
   1.0460000000000000         -3.2579965594006944E-026
   1.0490000000000002         -2.7767383376320401E-026
   1.0520000000000000         -1.8206357714749994E-026
   1.0550000000000002         -3.8115166426299151E-027
   1.0580000000000001          1.4934304392284026E-026
   1.0610000000000002          3.6892433377214186E-026
   1.0640000000000001          6.0237522663969623E-026
   1.0670000000000002          8.2501132219586051E-026
   1.0700000000000001          1.0070328209044754E-025
   1.0730000000000002          1.1157785312036524E-025
   1.0760000000000001          1.1188879400740100E-025
   1.0790000000000002          9.8822226779504792E-026
   1.0820000000000001          7.0426900450152718E-026
   1.0850000000000002          2.6063806262079584E-026
   1.0880000000000001         -3.3185559382491746E-026
   1.0910000000000002         -1.0420936768844679E-025
   1.0940000000000001         -1.8171522038494715E-025
   1.0970000000000002         -2.5829415396279162E-025
