 -0.39999999999999997          0.0000000000000000     
 -0.39699999999999996          0.0000000000000000     
 -0.39399999999999996          0.0000000000000000     
 -0.39099999999999996          0.0000000000000000     
 -0.38799999999999996          0.0000000000000000     
 -0.38499999999999995          0.0000000000000000     
 -0.38199999999999995          0.0000000000000000     
 -0.37899999999999995          0.0000000000000000     
 -0.37599999999999995          0.0000000000000000     
 -0.37299999999999994          0.0000000000000000     
 -0.37000000000000000          0.0000000000000000     
 -0.36699999999999999          0.0000000000000000     
 -0.36399999999999999          0.0000000000000000     
 -0.36099999999999999          0.0000000000000000     
 -0.35799999999999998          0.0000000000000000     
 -0.35499999999999998          0.0000000000000000     
 -0.35199999999999998          0.0000000000000000     
 -0.34899999999999998          0.0000000000000000     
 -0.34599999999999997          0.0000000000000000     
 -0.34299999999999997          0.0000000000000000     
 -0.33999999999999997          0.0000000000000000     
 -0.33699999999999997          0.0000000000000000     
 -0.33399999999999996          0.0000000000000000     
 -0.33099999999999996          0.0000000000000000     
 -0.32799999999999996          0.0000000000000000     
 -0.32499999999999996          0.0000000000000000     
 -0.32199999999999995          0.0000000000000000     
 -0.31899999999999995          0.0000000000000000     
 -0.31599999999999995          0.0000000000000000     
 -0.31299999999999994          0.0000000000000000     
 -0.30999999999999994          0.0000000000000000     
 -0.30699999999999994          0.0000000000000000     
 -0.30399999999999994          0.0000000000000000     
 -0.30099999999999993          0.0000000000000000     
 -0.29799999999999993          0.0000000000000000     
 -0.29499999999999998          0.0000000000000000     
 -0.29199999999999998          0.0000000000000000     
 -0.28899999999999998          0.0000000000000000     
 -0.28599999999999998          0.0000000000000000     
 -0.28299999999999997          0.0000000000000000     
 -0.27999999999999997          0.0000000000000000     
 -0.27699999999999997          0.0000000000000000     
 -0.27399999999999997          0.0000000000000000     
 -0.27099999999999996          0.0000000000000000     
 -0.26799999999999996          0.0000000000000000     
 -0.26499999999999996          0.0000000000000000     
 -0.26199999999999996          0.0000000000000000     
 -0.25899999999999995          0.0000000000000000     
 -0.25599999999999995          0.0000000000000000     
 -0.25300000000000000          0.0000000000000000     
 -0.24999999999999997          0.0000000000000000     
 -0.24699999999999997          0.0000000000000000     
 -0.24399999999999997          0.0000000000000000     
 -0.24099999999999996          0.0000000000000000     
 -0.23799999999999996          0.0000000000000000     
 -0.23499999999999996          0.0000000000000000     
 -0.23199999999999996          0.0000000000000000     
 -0.22899999999999995          0.0000000000000000     
 -0.22599999999999995          0.0000000000000000     
 -0.22299999999999998          0.0000000000000000     
 -0.21999999999999997          0.0000000000000000     
 -0.21699999999999997          0.0000000000000000     
 -0.21399999999999997          0.0000000000000000     
 -0.21099999999999997          0.0000000000000000     
 -0.20799999999999996          0.0000000000000000     
 -0.20499999999999996          0.0000000000000000     
 -0.20199999999999996          0.0000000000000000     
 -0.19899999999999995          0.0000000000000000     
 -0.19599999999999995          0.0000000000000000     
 -0.19299999999999995          0.0000000000000000     
 -0.18999999999999997          0.0000000000000000     
 -0.18699999999999997          0.0000000000000000     
 -0.18399999999999997          0.0000000000000000     
 -0.18099999999999997          0.0000000000000000     
 -0.17799999999999996          0.0000000000000000     
 -0.17499999999999996          0.0000000000000000     
 -0.17199999999999996          0.0000000000000000     
 -0.16899999999999996          0.0000000000000000     
 -0.16599999999999995          0.0000000000000000     
 -0.16299999999999995          0.0000000000000000     
 -0.15999999999999998          0.0000000000000000     
 -0.15699999999999997          0.0000000000000000     
 -0.15399999999999997          0.0000000000000000     
 -0.15099999999999997          0.0000000000000000     
 -0.14799999999999996          0.0000000000000000     
 -0.14499999999999996          0.0000000000000000     
 -0.14199999999999996          0.0000000000000000     
 -0.13899999999999996          0.0000000000000000     
 -0.13599999999999995          0.0000000000000000     
 -0.13299999999999995          0.0000000000000000     
 -0.12999999999999995          0.0000000000000000     
 -0.12699999999999995          0.0000000000000000     
 -0.12399999999999994          0.0000000000000000     
 -0.12099999999999994          0.0000000000000000     
 -0.11799999999999994          0.0000000000000000     
 -0.11499999999999994          0.0000000000000000     
 -0.11199999999999993          0.0000000000000000     
 -0.10899999999999999          0.0000000000000000     
 -0.10599999999999998          0.0000000000000000     
 -0.10299999999999998          0.0000000000000000     
  -9.9999999999999978E-002     0.0000000000000000     
  -9.6999999999999975E-002     0.0000000000000000     
  -9.3999999999999972E-002     0.0000000000000000     
  -9.0999999999999970E-002     0.0000000000000000     
  -8.7999999999999967E-002     0.0000000000000000     
  -8.4999999999999964E-002     0.0000000000000000     
  -8.1999999999999962E-002     0.0000000000000000     
  -7.8999999999999959E-002     0.0000000000000000     
  -7.5999999999999956E-002     0.0000000000000000     
  -7.2999999999999954E-002     0.0000000000000000     
  -6.9999999999999951E-002     0.0000000000000000     
  -6.6999999999999948E-002     0.0000000000000000     
  -6.3999999999999946E-002     0.0000000000000000     
  -6.0999999999999943E-002     0.0000000000000000     
  -5.7999999999999940E-002     0.0000000000000000     
  -5.4999999999999938E-002     0.0000000000000000     
  -5.1999999999999935E-002     0.0000000000000000     
  -4.8999999999999932E-002     0.0000000000000000     
  -4.5999999999999985E-002     0.0000000000000000     
  -4.2999999999999983E-002     0.0000000000000000     
  -3.9999999999999980E-002     0.0000000000000000     
  -3.6999999999999977E-002     0.0000000000000000     
  -3.3999999999999975E-002     0.0000000000000000     
  -3.0999999999999972E-002     0.0000000000000000     
  -2.7999999999999969E-002     0.0000000000000000     
  -2.4999999999999967E-002     0.0000000000000000     
  -2.1999999999999964E-002     0.0000000000000000     
  -1.8999999999999961E-002     0.0000000000000000     
  -1.5999999999999959E-002     0.0000000000000000     
  -1.2999999999999956E-002     0.0000000000000000     
  -9.9999999999999534E-003     0.0000000000000000     
  -6.9999999999999507E-003     0.0000000000000000     
  -3.9999999999999480E-003     0.0000000000000000     
  -9.9999999999994538E-004     0.0000000000000000     
   2.0000000000000573E-003     0.0000000000000000     
   5.0000000000000600E-003     0.0000000000000000     
   8.0000000000000626E-003     0.0000000000000000     
   1.1000000000000065E-002     0.0000000000000000     
   1.4000000000000068E-002     0.0000000000000000     
   1.7000000000000015E-002     0.0000000000000000     
   2.0000000000000018E-002     0.0000000000000000     
   2.3000000000000020E-002     0.0000000000000000     
   2.6000000000000023E-002     0.0000000000000000     
   2.9000000000000026E-002     0.0000000000000000     
   3.2000000000000028E-002     0.0000000000000000     
   3.5000000000000031E-002     0.0000000000000000     
   3.8000000000000034E-002     0.0000000000000000     
   4.1000000000000036E-002     0.0000000000000000     
   4.4000000000000039E-002     0.0000000000000000     
   4.7000000000000042E-002     0.0000000000000000     
   5.0000000000000044E-002     0.0000000000000000     
   5.3000000000000047E-002     0.0000000000000000     
   5.6000000000000050E-002     0.0000000000000000     
   5.9000000000000052E-002     0.0000000000000000     
   6.2000000000000055E-002     0.0000000000000000     
   6.5000000000000058E-002     0.0000000000000000     
   6.8000000000000060E-002     0.0000000000000000     
   7.1000000000000063E-002     0.0000000000000000     
   7.4000000000000066E-002     0.0000000000000000     
   7.7000000000000068E-002     0.0000000000000000     
   8.0000000000000016E-002     0.0000000000000000     
   8.3000000000000018E-002     0.0000000000000000     
   8.6000000000000021E-002     0.0000000000000000     
   8.9000000000000024E-002     0.0000000000000000     
   9.2000000000000026E-002     0.0000000000000000     
   9.5000000000000029E-002     0.0000000000000000     
   9.8000000000000032E-002     0.0000000000000000     
  0.10100000000000003          0.0000000000000000     
  0.10400000000000004          0.0000000000000000     
  0.10700000000000004          0.0000000000000000     
  0.11000000000000004          0.0000000000000000     
  0.11300000000000004          0.0000000000000000     
  0.11600000000000005          0.0000000000000000     
  0.11900000000000005          0.0000000000000000     
  0.12200000000000005          0.0000000000000000     
  0.12500000000000006          0.0000000000000000     
  0.12800000000000006          0.0000000000000000     
  0.13100000000000006          0.0000000000000000     
  0.13400000000000006          0.0000000000000000     
  0.13700000000000007          0.0000000000000000     
  0.14000000000000007          0.0000000000000000     
  0.14300000000000007          0.0000000000000000     
  0.14600000000000007          0.0000000000000000     
  0.14900000000000008          0.0000000000000000     
  0.15200000000000008          0.0000000000000000     
  0.15500000000000008          0.0000000000000000     
  0.15800000000000008          0.0000000000000000     
  0.16100000000000009          0.0000000000000000     
  0.16400000000000009          0.0000000000000000     
  0.16700000000000009          0.0000000000000000     
  0.17000000000000010          0.0000000000000000     
  0.17300000000000010          0.0000000000000000     
  0.17600000000000010          0.0000000000000000     
  0.17899999999999999          0.0000000000000000     
  0.18200000000000000          0.0000000000000000     
  0.18500000000000000          0.0000000000000000     
  0.18800000000000000          0.0000000000000000     
  0.19100000000000000          0.0000000000000000     
  0.19400000000000001          0.0000000000000000     
  0.19700000000000001          0.0000000000000000     
  0.20000000000000001          0.0000000000000000     
  0.20300000000000001          0.0000000000000000     
  0.20600000000000002          0.0000000000000000     
  0.20900000000000002          0.0000000000000000     
  0.21200000000000002          0.0000000000000000     
  0.21500000000000002          0.0000000000000000     
  0.21800000000000003          0.0000000000000000     
  0.22100000000000003          0.0000000000000000     
  0.22400000000000003          0.0000000000000000     
  0.22700000000000004          0.0000000000000000     
  0.23000000000000004          0.0000000000000000     
  0.23300000000000004          0.0000000000000000     
  0.23600000000000004          0.0000000000000000     
  0.23900000000000005          0.0000000000000000     
  0.24200000000000005          0.0000000000000000     
  0.24500000000000005          0.0000000000000000     
  0.24800000000000005          0.0000000000000000     
  0.25100000000000006          0.0000000000000000     
  0.25400000000000006          0.0000000000000000     
  0.25700000000000006          0.0000000000000000     
  0.26000000000000006          0.0000000000000000     
  0.26300000000000007          0.0000000000000000     
  0.26600000000000007          0.0000000000000000     
  0.26900000000000007          0.0000000000000000     
  0.27200000000000008          0.0000000000000000     
  0.27500000000000008          0.0000000000000000     
  0.27800000000000008          0.0000000000000000     
  0.28100000000000008          0.0000000000000000     
  0.28400000000000009          0.0000000000000000     
  0.28700000000000009          0.0000000000000000     
  0.29000000000000009          0.0000000000000000     
  0.29300000000000009          0.0000000000000000     
  0.29600000000000010          0.0000000000000000     
  0.29900000000000010          0.0000000000000000     
  0.30200000000000010          0.0000000000000000     
  0.30499999999999999          0.0000000000000000     
  0.30800000000000000          0.0000000000000000     
  0.31100000000000000          0.0000000000000000     
  0.31400000000000000          0.0000000000000000     
  0.31700000000000000          0.0000000000000000     
  0.32000000000000001          0.0000000000000000     
  0.32300000000000001          0.0000000000000000     
  0.32600000000000001          0.0000000000000000     
  0.32900000000000001          0.0000000000000000     
  0.33200000000000002          0.0000000000000000     
  0.33500000000000002          0.0000000000000000     
  0.33800000000000002          0.0000000000000000     
  0.34100000000000003          0.0000000000000000     
  0.34400000000000003          0.0000000000000000     
  0.34700000000000003          0.0000000000000000     
  0.35000000000000003          0.0000000000000000     
  0.35300000000000004          5.6944706407370499E-042
  0.35600000000000004          9.3675174386495415E-042
  0.35900000000000004         -1.6331053536279703E-041
  0.36200000000000004          9.6976122789245250E-042
  0.36500000000000005          3.2327077288614878E-041
  0.36800000000000005         -4.6045308363121977E-041
  0.37100000000000005         -6.3062841017207847E-040
  0.37400000000000005         -1.0969775631001408E-039
  0.37700000000000006         -1.2694070842404168E-039
  0.38000000000000006         -8.8890725391718798E-040
  0.38300000000000006          1.9474867046844834E-040
  0.38600000000000007          1.9828789514187951E-039
  0.38900000000000007          1.6775594988177107E-039
  0.39200000000000007          1.5386789896130660E-039
  0.39500000000000007          1.1873191658698723E-039
  0.39800000000000008          3.3646865810693031E-042
  0.40100000000000008         -5.2879105187258412E-039
  0.40400000000000008         -1.3947448358177220E-038
  0.40700000000000008         -1.9019125946877472E-038
  0.41000000000000009         -1.9143472461532744E-038
  0.41300000000000009         -1.1292894741651918E-038
  0.41600000000000009          1.1331556578959463E-038
  0.41900000000000009          3.7189035963507384E-038
  0.42200000000000010          7.0045526134984473E-038
  0.42500000000000010          9.5524547707343043E-038
  0.42800000000000010          9.7871341929086916E-038
  0.43100000000000011          6.0637458126726887E-038
  0.43400000000000000         -2.6785842520827072E-038
  0.43700000000000000         -1.6216234457483480E-037
  0.44000000000000000         -3.2093791434921705E-037
  0.44300000000000000         -4.5470985381340363E-037
  0.44600000000000001         -4.9399580623408085E-037
  0.44900000000000001         -3.6291189153140172E-037
  0.45200000000000001         -4.6348874428168310E-039
  0.45500000000000002          5.8517494933599958E-037
  0.45800000000000002          1.3251189248745619E-036
  0.46100000000000002          2.0274416010148973E-036
  0.46400000000000002          2.4049292635531877E-036
  0.46700000000000003          2.1184530626481149E-036
  0.47000000000000003          8.7079678810983463E-037
  0.47300000000000003         -1.4611419586784136E-036
  0.47600000000000003         -4.6816082006850457E-036
  0.47900000000000004         -8.1630478424485410E-036
  0.48200000000000004         -1.0822022023581246E-035
  0.48500000000000004         -1.1240813894698446E-035
  0.48800000000000004         -7.9716265080805128E-036
  0.49100000000000005         -1.7566422361927964E-038
  0.49400000000000005          1.2578272349448908E-035
  0.49700000000000005          2.8176150237030699E-035
  0.50000000000000000          4.3217890472715513E-035
  0.50300000000000011          5.2369088036139746E-035
  0.50600000000000001          4.9319591569965881E-035
  0.50900000000000012          2.8322010619043170E-035
  0.51200000000000001         -1.3649433028849407E-035
  0.51500000000000012         -7.4493200093818374E-035
  0.51800000000000002         -1.4496554327033319E-034
  0.52100000000000013         -2.0788560660462481E-034
  0.52400000000000002         -2.3941666271053445E-034
  0.52700000000000014         -2.1305608317760517E-034
  0.53000000000000003         -1.0644255852887977E-034
  0.53300000000000014          8.9713277058422046E-035
  0.53600000000000003          3.6224047976094352E-034
  0.53900000000000015          6.6825339781462404E-034
  0.54200000000000004          9.3320927139737756E-034
  0.54500000000000015          1.0573807607097690E-033
  0.54800000000000004          9.3282835965281329E-034
  0.55100000000000016          4.7087509493147855E-034
  0.55400000000000005         -3.6293010206587635E-034
  0.55700000000000016         -1.5128946123726519E-033
  0.56000000000000005         -2.8060620579879322E-033
  0.56299999999999994         -3.9455635251984815E-033
  0.56600000000000006         -4.5356005693916404E-033
  0.56899999999999995         -4.1454307572943094E-033
  0.57200000000000006         -2.4122131280378522E-033
  0.57499999999999996          8.2807232149190980E-034
  0.57800000000000007          5.4047671035866481E-033
  0.58099999999999996          1.0706157104929488E-032
  0.58400000000000007          1.5643973652718214E-032
  0.58699999999999997          1.8728983513977295E-032
  0.59000000000000008          1.8285712085626576E-032
  0.59299999999999997          1.2809740082799288E-032
  0.59600000000000009          1.4354673601943832E-033
  0.59899999999999998         -1.5559671665035916E-032
  0.60200000000000009         -3.6328489363769484E-032
  0.60500000000000020         -5.7245801530327984E-032
  0.60800000000000010         -7.3062063676864744E-032
  0.61100000000000021         -7.7529908080617217E-032
  0.61400000000000010         -6.4541037119389347E-032
  0.61700000000000021         -2.9700430534834999E-032
  0.62000000000000011          2.7872211183847401E-032
  0.62300000000000022          1.0386205346550783E-031
  0.62600000000000011          1.8765559869015590E-031
  0.62900000000000000          2.6230877138313979E-031
  0.63200000000000012          3.0601770954129113E-031
  0.63500000000000001          2.9533160700432782E-031
  0.63800000000000012          2.1002990316871901E-031
  0.64100000000000001          3.9164833741689288E-032
  0.64400000000000013         -2.1268797911736442E-031
  0.64700000000000002         -5.2033447035059235E-031
  0.65000000000000013         -8.3563343564807325E-031
  0.65300000000000002         -1.0895072818769330E-030
  0.65600000000000014         -1.1994658826446590E-030
  0.65900000000000003         -1.0830069841427202E-030
  0.66200000000000014         -6.7607372948381553E-031
  0.66500000000000004          4.5663254269187022E-032
  0.66800000000000015          1.0463560123852722E-030
  0.67100000000000004          2.2151445038663039E-030
  0.67400000000000015          3.3621872713122486E-030
  0.67700000000000005          4.2303115771345026E-030
  0.68000000000000016          4.5253556764116704E-030
  0.68300000000000005          3.9653582423546677E-030
  0.68600000000000017          2.3448067221771500E-030
  0.68900000000000006         -3.9428552440381192E-031
  0.69200000000000017         -4.0969547206058038E-030
  0.69500000000000006         -8.3510302200528244E-030
  0.69800000000000018         -1.2480440750753717E-029
  0.70100000000000007         -1.5590246205852714E-029
  0.70400000000000018         -1.6671790973135951E-029
  0.70700000000000007         -1.4766926739437201E-029
  0.71000000000000019         -9.1782104210224890E-030
  0.71300000000000008          3.0161146354890053E-031
  0.71600000000000019          1.3179815688875023E-029
  0.71900000000000008          2.8121315215807046E-029
  0.72200000000000020          4.2923516660352669E-029
  0.72500000000000009          5.4651244728418931E-029
  0.72800000000000020          5.9957306772263641E-029
  0.73100000000000009          5.5586856183459804E-029
  0.73400000000000021          3.9028146177834936E-029
  0.73700000000000010          9.2331522349629366E-030
  0.74000000000000021         -3.2705033789879380E-029
  0.74300000000000010         -8.3057671345870990E-029
  0.74600000000000022         -1.3529674062987747E-028
  0.74900000000000011         -1.8039474534191408E-028
  0.75200000000000022         -2.0767493261353108E-028
  0.75500000000000012         -2.0622587420474445E-028
  0.75800000000000001         -1.6679719872961312E-028
  0.76100000000000012         -8.3982389975129072E-029
  0.76400000000000001          4.1612302192523197E-029
  0.76700000000000013          2.0159954710633924E-028
  0.77000000000000002          3.7887038439171308E-028
  0.77300000000000013          5.4788938219004915E-028
  0.77600000000000002          6.7653554418342943E-028
  0.77900000000000014          7.2962359722154236E-028
  0.78200000000000003          6.7399359915492091E-028
  0.78500000000000014          4.8475755173674643E-028
  0.78800000000000003          1.5199050296678693E-028
  0.79100000000000015         -3.1312662537701480E-028
  0.79400000000000004         -8.7388178416470467E-028
  0.79700000000000015         -1.4665368449430981E-027
  0.80000000000000004         -2.0028266485001728E-027
  0.80300000000000016         -2.3771676616460251E-027
  0.80600000000000005         -2.4787164966648107E-027
  0.80900000000000016         -2.2077002180880215E-027
  0.81200000000000006         -1.4945972737818985E-027
  0.81500000000000017         -3.1993286171834320E-028
  0.81800000000000006          1.2682541339502498E-027
  0.82100000000000017          3.1426102668670153E-027
  0.82400000000000007          5.0936923428688699E-027
  0.82700000000000018          6.8390870052757008E-027
  0.83000000000000007          8.0462229687127330E-027
  0.83300000000000018          8.3691069480164290E-027
  0.83600000000000008          7.4971480728622916E-027
  0.83900000000000019          5.2120355288775701E-027
  0.84200000000000008          1.4463268650729601E-027
  0.84500000000000020         -3.6644132390355732E-027
  0.84800000000000009         -9.7452904641019620E-027
  0.85100000000000020         -1.6171015668033159E-026
  0.85400000000000009         -2.2088333427151779E-026
  0.85700000000000021         -2.6477497625851627E-026
  0.86000000000000010         -2.8254250822976544E-026
  0.86300000000000021         -2.6408332450900096E-026
  0.86600000000000010         -2.0168521100768052E-026
  0.86900000000000022         -9.1778929005399554E-027
  0.87200000000000011          6.3425650638598995E-027
  0.87500000000000022          2.5467657257435563E-026
  0.87800000000000011          4.6506234287159190E-026
  0.88100000000000001          6.7029134656535929E-026
  0.88400000000000012          8.4006183141738574E-026
  0.88700000000000001          9.4061926292231530E-026
  0.89000000000000012          9.3845900694434458E-026
  0.89300000000000002          8.0497310785913707E-026
  0.89600000000000013          5.2166102115369122E-026
  0.89900000000000002          8.5352924477724445E-027
  0.90200000000000014         -4.8724325828010414E-026
  0.90500000000000003         -1.1564479412726644E-025
  0.90800000000000014         -1.8587496488988671E-025
  0.91100000000000003         -2.5088634257296214E-025
  0.91400000000000015         -3.0051943279814973E-025
  0.91700000000000004         -3.2388598400182872E-025
  0.92000000000000015         -3.1060275156113579E-025
  0.92300000000000004         -2.5228170083506527E-025
  0.92600000000000016         -1.4415198702454347E-025
  0.92900000000000005          1.3361116657352090E-026
  0.93200000000000016          2.1331146269076215E-025
  0.93500000000000005          4.4139507004676758E-025
  0.93800000000000017          6.7583117316656244E-025
  0.94100000000000006          8.8815859636273225E-025
  0.94400000000000017          1.0450823682235482E-024
  0.94700000000000006          1.1114055283729995E-024
  0.95000000000000018          1.0539579036123174E-024
  0.95300000000000007          8.4628752073876812E-025
  0.95600000000000018          4.7372954560857424E-025
  0.95900000000000007         -6.1678983191493868E-026
  0.96200000000000019         -7.3707237601749178E-025
  0.96500000000000008         -1.5061314809179383E-024
  0.96800000000000019         -2.2986475570600070E-024
  0.97100000000000009         -3.0228917971465536E-024
  0.97400000000000020         -3.5711969471038131E-024
  0.97700000000000009         -3.8288988545872849E-024
  0.98000000000000020         -3.6863973269429841E-024
  0.98300000000000010         -3.0536918673203997E-024
  0.98600000000000021         -1.8762680659261794E-024
  0.98900000000000010         -1.5079372311864968E-025
  0.99200000000000021          2.0612677446949506E-024
  0.99500000000000011          4.6242567830617009E-024
  0.99800000000000022          7.3252810950932729E-024
   1.0010000000000001          9.8794645440230221E-024
   1.0040000000000002          1.1944939943566142E-023
   1.0070000000000001          1.3148249534596883E-023
   1.0100000000000000          1.3119795216216521E-023
   1.0130000000000001          1.1537756669766167E-023
   1.0160000000000000          8.1775011643563030E-024
   1.0190000000000001          2.9622285553646726E-024
   1.0220000000000000         -3.9906381087664777E-024
   1.0250000000000001         -1.2333586436602674E-023
   1.0280000000000000         -2.1470337920478597E-023
   1.0310000000000001         -3.0560606745457124E-023
   1.0340000000000000         -3.8553565672845429E-023
   1.0370000000000001         -4.4253250768380191E-023
   1.0400000000000000         -4.6416319264821816E-023
   1.0430000000000001         -4.3879397786266300E-023
   1.0460000000000000         -3.5708907518935740E-023
   1.0490000000000002         -2.1362479020569380E-023
   1.0520000000000000         -8.4697896020123622E-025
   1.0550000000000002          2.5144890911936450E-023
   1.0580000000000001          5.5139569445848586E-023
   1.0610000000000002          8.6849392065337850E-023
   1.0640000000000001          1.1721985015969526E-022
   1.0670000000000002          1.4257124096555961E-022
   1.0700000000000001          1.5884265758543423E-022
   1.0730000000000002          1.6193630002903015E-022
   1.0760000000000001          1.4814957788770693E-022
   1.0790000000000002          1.1467032331759696E-022
   1.0820000000000001          6.0097242300754221E-023
   1.0850000000000002         -1.5063098596674120E-023
   1.0880000000000001         -1.0798051687302954E-022
   1.0910000000000002         -2.1323016195398345E-022
   1.0940000000000001         -3.2272804104485280E-022
   1.0970000000000002         -4.2593000179050644E-022
