 -0.39999999999999997          0.0000000000000000     
 -0.39699999999999996          0.0000000000000000     
 -0.39399999999999996          0.0000000000000000     
 -0.39099999999999996          0.0000000000000000     
 -0.38799999999999996          0.0000000000000000     
 -0.38499999999999995          0.0000000000000000     
 -0.38199999999999995          0.0000000000000000     
 -0.37899999999999995          0.0000000000000000     
 -0.37599999999999995          0.0000000000000000     
 -0.37299999999999994          0.0000000000000000     
 -0.37000000000000000          0.0000000000000000     
 -0.36699999999999999          0.0000000000000000     
 -0.36399999999999999          0.0000000000000000     
 -0.36099999999999999          0.0000000000000000     
 -0.35799999999999998          0.0000000000000000     
 -0.35499999999999998          0.0000000000000000     
 -0.35199999999999998          0.0000000000000000     
 -0.34899999999999998          0.0000000000000000     
 -0.34599999999999997          0.0000000000000000     
 -0.34299999999999997          0.0000000000000000     
 -0.33999999999999997          0.0000000000000000     
 -0.33699999999999997          0.0000000000000000     
 -0.33399999999999996          0.0000000000000000     
 -0.33099999999999996          0.0000000000000000     
 -0.32799999999999996          0.0000000000000000     
 -0.32499999999999996          0.0000000000000000     
 -0.32199999999999995          0.0000000000000000     
 -0.31899999999999995          0.0000000000000000     
 -0.31599999999999995          0.0000000000000000     
 -0.31299999999999994          0.0000000000000000     
 -0.30999999999999994          0.0000000000000000     
 -0.30699999999999994          0.0000000000000000     
 -0.30399999999999994          0.0000000000000000     
 -0.30099999999999993          0.0000000000000000     
 -0.29799999999999993          0.0000000000000000     
 -0.29499999999999998          0.0000000000000000     
 -0.29199999999999998          0.0000000000000000     
 -0.28899999999999998          0.0000000000000000     
 -0.28599999999999998          0.0000000000000000     
 -0.28299999999999997          0.0000000000000000     
 -0.27999999999999997          0.0000000000000000     
 -0.27699999999999997          0.0000000000000000     
 -0.27399999999999997          0.0000000000000000     
 -0.27099999999999996          0.0000000000000000     
 -0.26799999999999996          0.0000000000000000     
 -0.26499999999999996          0.0000000000000000     
 -0.26199999999999996          0.0000000000000000     
 -0.25899999999999995          0.0000000000000000     
 -0.25599999999999995          0.0000000000000000     
 -0.25300000000000000          0.0000000000000000     
 -0.24999999999999997          0.0000000000000000     
 -0.24699999999999997          0.0000000000000000     
 -0.24399999999999997          0.0000000000000000     
 -0.24099999999999996          0.0000000000000000     
 -0.23799999999999996          0.0000000000000000     
 -0.23499999999999996          0.0000000000000000     
 -0.23199999999999996          0.0000000000000000     
 -0.22899999999999995          0.0000000000000000     
 -0.22599999999999995          0.0000000000000000     
 -0.22299999999999998          0.0000000000000000     
 -0.21999999999999997          0.0000000000000000     
 -0.21699999999999997          0.0000000000000000     
 -0.21399999999999997          0.0000000000000000     
 -0.21099999999999997          0.0000000000000000     
 -0.20799999999999996          0.0000000000000000     
 -0.20499999999999996          0.0000000000000000     
 -0.20199999999999996          0.0000000000000000     
 -0.19899999999999995          0.0000000000000000     
 -0.19599999999999995          0.0000000000000000     
 -0.19299999999999995          0.0000000000000000     
 -0.18999999999999997          0.0000000000000000     
 -0.18699999999999997          0.0000000000000000     
 -0.18399999999999997          0.0000000000000000     
 -0.18099999999999997          0.0000000000000000     
 -0.17799999999999996          0.0000000000000000     
 -0.17499999999999996          0.0000000000000000     
 -0.17199999999999996          0.0000000000000000     
 -0.16899999999999996          0.0000000000000000     
 -0.16599999999999995          0.0000000000000000     
 -0.16299999999999995          0.0000000000000000     
 -0.15999999999999998          0.0000000000000000     
 -0.15699999999999997          0.0000000000000000     
 -0.15399999999999997          0.0000000000000000     
 -0.15099999999999997          0.0000000000000000     
 -0.14799999999999996          0.0000000000000000     
 -0.14499999999999996          0.0000000000000000     
 -0.14199999999999996          0.0000000000000000     
 -0.13899999999999996          0.0000000000000000     
 -0.13599999999999995          0.0000000000000000     
 -0.13299999999999995          0.0000000000000000     
 -0.12999999999999995          0.0000000000000000     
 -0.12699999999999995          0.0000000000000000     
 -0.12399999999999994          0.0000000000000000     
 -0.12099999999999994          0.0000000000000000     
 -0.11799999999999994          0.0000000000000000     
 -0.11499999999999994          0.0000000000000000     
 -0.11199999999999993          0.0000000000000000     
 -0.10899999999999999          0.0000000000000000     
 -0.10599999999999998          0.0000000000000000     
 -0.10299999999999998          0.0000000000000000     
  -9.9999999999999978E-002     0.0000000000000000     
  -9.6999999999999975E-002     0.0000000000000000     
  -9.3999999999999972E-002     0.0000000000000000     
  -9.0999999999999970E-002     0.0000000000000000     
  -8.7999999999999967E-002     0.0000000000000000     
  -8.4999999999999964E-002     0.0000000000000000     
  -8.1999999999999962E-002     0.0000000000000000     
  -7.8999999999999959E-002     0.0000000000000000     
  -7.5999999999999956E-002     0.0000000000000000     
  -7.2999999999999954E-002     0.0000000000000000     
  -6.9999999999999951E-002     0.0000000000000000     
  -6.6999999999999948E-002     0.0000000000000000     
  -6.3999999999999946E-002     0.0000000000000000     
  -6.0999999999999943E-002     0.0000000000000000     
  -5.7999999999999940E-002     0.0000000000000000     
  -5.4999999999999938E-002     0.0000000000000000     
  -5.1999999999999935E-002     0.0000000000000000     
  -4.8999999999999932E-002     0.0000000000000000     
  -4.5999999999999985E-002     0.0000000000000000     
  -4.2999999999999983E-002     0.0000000000000000     
  -3.9999999999999980E-002     0.0000000000000000     
  -3.6999999999999977E-002     0.0000000000000000     
  -3.3999999999999975E-002     0.0000000000000000     
  -3.0999999999999972E-002     0.0000000000000000     
  -2.7999999999999969E-002     0.0000000000000000     
  -2.4999999999999967E-002     0.0000000000000000     
  -2.1999999999999964E-002     0.0000000000000000     
  -1.8999999999999961E-002     0.0000000000000000     
  -1.5999999999999959E-002     0.0000000000000000     
  -1.2999999999999956E-002     0.0000000000000000     
  -9.9999999999999534E-003     0.0000000000000000     
  -6.9999999999999507E-003     0.0000000000000000     
  -3.9999999999999480E-003     0.0000000000000000     
  -9.9999999999994538E-004     0.0000000000000000     
   2.0000000000000573E-003     0.0000000000000000     
   5.0000000000000600E-003     0.0000000000000000     
   8.0000000000000626E-003     0.0000000000000000     
   1.1000000000000065E-002     0.0000000000000000     
   1.4000000000000068E-002     0.0000000000000000     
   1.7000000000000015E-002     4.5949224374590564E-042
   2.0000000000000018E-002     7.3270294559228256E-042
   2.3000000000000020E-002     0.0000000000000000     
   2.6000000000000023E-002    -1.5773518359746669E-041
   2.9000000000000026E-002     1.1250426128826046E-041
   3.2000000000000028E-002     5.3833935499181988E-040
   3.5000000000000031E-002     7.7988624116810460E-040
   3.8000000000000034E-002    -1.5140129484421880E-040
   4.1000000000000036E-002    -1.9337857106395915E-039
   4.4000000000000039E-002    -3.2781223760264375E-039
   4.7000000000000042E-002     2.5639853228995000E-040
   5.0000000000000044E-002     8.2197597764547841E-039
   5.3000000000000047E-002     1.3964347246516747E-038
   5.6000000000000050E-002     4.7236617533226295E-039
   5.9000000000000052E-002    -2.6777021374927253E-038
   6.2000000000000055E-002    -5.5216377775729228E-038
   6.5000000000000058E-002    -3.8878871877315204E-038
   6.8000000000000060E-002     7.0230442131544841E-038
   7.1000000000000063E-002     2.1329302079761753E-037
   7.4000000000000066E-002     2.2283523829912245E-037
   7.7000000000000068E-002    -1.0143920806861444E-037
   8.0000000000000016E-002    -7.0181810531734830E-037
   8.3000000000000018E-002    -1.0338621091254226E-036
   8.6000000000000021E-002    -2.6257867744566110E-037
   8.9000000000000024E-002     1.8774195600103257E-036
   9.2000000000000026E-002     4.0030083305670463E-036
   9.5000000000000029E-002     3.0591553082116053E-036
   9.8000000000000032E-002    -3.3758190654448437E-036
  0.10100000000000003         -1.2961547075398941E-035
  0.10400000000000004         -1.6235354863552742E-035
  0.10700000000000004         -1.2554319837989079E-036
  0.11000000000000004          3.3140537357191754E-035
  0.11300000000000004          6.3564392396200375E-035
  0.11600000000000005          4.5376952946372790E-035
  0.11900000000000005         -5.2721306945729915E-035
  0.12200000000000005         -1.9380211724446225E-034
  0.12500000000000006         -2.4588664539203007E-034
  0.12800000000000006         -4.6317019813019867E-035
  0.13100000000000006          4.2847916482378510E-034
  0.13400000000000006          8.8893855297019513E-034
  0.13700000000000007          7.6122421302924903E-034
  0.14000000000000007         -4.1359358766434839E-034
  0.14300000000000007         -2.3196754658853349E-033
  0.14600000000000007         -3.4669547423513153E-033
  0.14900000000000008         -1.7651521672129314E-033
  0.15200000000000008          3.6642524871187155E-033
  0.15500000000000008          1.0332249435147850E-032
  0.15800000000000008          1.1978390411304028E-032
  0.16100000000000009          1.9656094784737207E-033
  0.16400000000000009         -1.9809934261745998E-032
  0.16700000000000009         -4.0823984442832599E-032
  0.17000000000000010         -3.7868065898416415E-032
  0.17300000000000010          8.0129131492268781E-033
  0.17600000000000010          8.7949915149594953E-032
  0.17899999999999999          1.4992537364083506E-031
  0.18200000000000000          1.1420214536469320E-031
  0.18500000000000000         -7.0303185051070915E-032
  0.18800000000000000         -3.5063056285658747E-031
  0.19100000000000000         -5.3329913720828885E-031
  0.19400000000000001         -3.5323148851659550E-031
  0.19700000000000001          3.3283692244304956E-031
  0.20000000000000001          1.3100231379062121E-030
  0.20300000000000001          1.9089894027367673E-030
  0.20600000000000002          1.2449520174510640E-030
  0.20900000000000002         -1.1623333700109173E-030
  0.21200000000000002         -4.6374343111235477E-030
  0.21500000000000002         -7.0091559754054947E-030
  0.21800000000000003         -5.2712366282267909E-030
  0.22100000000000003          2.5630001814265430E-030
  0.22400000000000003          1.5034844450681175E-029
  0.22700000000000004          2.5740998566265892E-029
  0.23000000000000004          2.4574056107320291E-029
  0.23300000000000004          2.6937905184295481E-030
  0.23600000000000004         -3.9843334886213046E-029
  0.23900000000000005         -8.7475764256382388E-029
  0.24200000000000005         -1.0891807557561593E-028
  0.24500000000000005         -6.7800546282715893E-029
  0.24800000000000005          5.5778339659913132E-029
  0.25100000000000006          2.3987048330606083E-028
  0.25400000000000006          4.0548568847312023E-028
  0.25700000000000006          4.2794019048083718E-028
  0.26000000000000006          1.8477003172803426E-028
  0.26300000000000007         -3.6587526398515000E-028
  0.26600000000000007         -1.1044347405685569E-027
  0.26900000000000007         -1.7131537267708240E-027
  0.27200000000000008         -1.7320367073619573E-027
  0.27500000000000008         -7.3229230810841843E-028
  0.27800000000000008          1.4191520307842623E-027
  0.28100000000000008          4.2956466371078902E-027
  0.28400000000000009          6.7905365632536642E-027
  0.28700000000000009          7.2876678634826195E-027
  0.29000000000000009          4.1998327744572281E-027
  0.29300000000000009         -3.1933591296346510E-027
  0.29600000000000010         -1.3862254688696717E-026
  0.29900000000000010         -2.4507972368821265E-026
  0.30200000000000010         -2.9852735489408484E-026
  0.30499999999999999         -2.4031332588075527E-026
  0.30800000000000000         -3.0130191061099944E-027
  0.31100000000000000          3.2516944229597123E-026
  0.31400000000000000          7.4868969749267170E-026
  0.31700000000000000          1.0895702184862567E-025
  0.32000000000000001          1.1491326331378548E-025
  0.32300000000000001          7.4078210142969383E-026
  0.32600000000000001         -2.2489694746540542E-026
  0.32900000000000001         -1.6526330581241878E-025
  0.33200000000000002         -3.2067159930130988E-025
  0.33500000000000002         -4.3241031216200871E-025
  0.33800000000000002         -4.3232313051173130E-025
  0.34100000000000003         -2.6106661599610454E-025
  0.34400000000000003          1.0483696441649175E-025
  0.34700000000000003          6.2679835980307813E-025
  0.35000000000000003          1.1888509313223803E-024
  0.35300000000000004          1.6035569580480699E-024
  0.35600000000000004          1.6462377312120478E-024
  0.35900000000000004          1.1176248888563188E-024
  0.36200000000000004         -7.4789183950942344E-026
  0.36500000000000005         -1.8367148823865993E-024
  0.36800000000000005         -3.8359205332782312E-024
  0.37100000000000005         -5.5088321855319871E-024
  0.37400000000000005         -6.1460957229588252E-024
  0.37700000000000006         -5.0610091696555494E-024
  0.38000000000000006         -1.8197450507489757E-024
  0.38300000000000006          3.5149120214003738E-024
  0.38600000000000007          1.0196947125632332E-023
  0.38900000000000007          1.6746480401757581E-023
  0.39200000000000007          2.1101810016534596E-023
  0.39500000000000007          2.1004299667963154E-023
  0.39800000000000008          1.4588305050719498E-023
  0.40100000000000008          1.0798982501867366E-024
  0.40400000000000008         -1.8557558824570957E-023
  0.40700000000000008         -4.1231869429562887E-023
  0.41000000000000009         -6.1783210456483687E-023
  0.41300000000000009         -7.3638707695174876E-023
  0.41600000000000009         -7.0084908559573011E-023
  0.41900000000000009         -4.6026196172484000E-023
  0.42200000000000010          7.5205107525321262E-026
  0.42500000000000010          6.4524665653679220E-023
  0.42800000000000010          1.3750604210330757E-022
  0.43100000000000011          2.0345760355601779E-022
  0.43400000000000000          2.4302192934289857E-022
  0.43700000000000000          2.3657742963129149E-022
  0.44000000000000000          1.6897894895376267E-022
  0.44300000000000000          3.4727152021448041E-023
  0.44600000000000001         -1.5753874692932665E-022
  0.44900000000000001         -3.8248662881825005E-022
  0.45200000000000001         -5.9864540902689842E-022
  0.45500000000000002         -7.5284104392169531E-022
  0.45800000000000002         -7.8862812257622423E-022
  0.46100000000000002         -6.5795775342674359E-022
  0.46400000000000002         -3.3441716942897645E-022
  0.46700000000000003          1.7441871578989684E-022
  0.47000000000000003          8.1842603336114324E-022
  0.47300000000000003          1.5029964238263973E-021
  0.47600000000000003          2.0958933372331900E-021
  0.47900000000000004          2.4438141623197971E-021
  0.48200000000000004          2.3977728202331674E-021
  0.48500000000000004          1.8444863126340033E-021
  0.48800000000000004          7.3903323435066389E-022
  0.49100000000000005         -8.6726226352568758E-022
  0.49400000000000005         -2.8102952647143635E-021
  0.49700000000000005         -4.8139144561863303E-021
  0.50000000000000000         -6.5119299921633322E-021
  0.50300000000000011         -7.4924643815668611E-021
  0.50600000000000001         -7.3617673286903982E-021
  0.50900000000000012         -5.8206830182594405E-021
  0.51200000000000001         -2.7430716053671700E-021
  0.51500000000000012          1.7569541115974696E-021
  0.51800000000000002          7.2831581200620046E-021
  0.52100000000000013          1.3153479964658551E-020
  0.52400000000000002          1.8443645635229651E-020
  0.52700000000000014          2.2081566682693149E-020
  0.53000000000000003          2.2988382584193793E-020
  0.53300000000000014          2.0254102959019891E-020
  0.53600000000000003          1.3327308772446208E-020
  0.53900000000000015          2.1929896860629900E-021
  0.54200000000000004         -1.2491815766552968E-020
  0.54500000000000015         -2.9334308392564925E-020
  0.54800000000000004         -4.6239661915620346E-020
  0.55100000000000016         -6.0558542794803667E-020
  0.55400000000000005         -6.9352391631645573E-020
  0.55700000000000016         -6.9763795839298550E-020
  0.56000000000000005         -5.9462465446374971E-020
  0.56299999999999994         -3.7120257775760524E-020
  0.56600000000000006         -2.8545449009082707E-021
  0.56899999999999995          4.1428713713098166E-020
  0.57200000000000006          9.1864741343535138E-020
  0.57499999999999996          1.4269368377495357E-019
  0.57800000000000007          1.8660512031623350E-019
  0.58099999999999996          2.1538185774563067E-019
  0.58400000000000007          2.2082582446436492E-019
  0.58699999999999997          1.9590315938824326E-019
  0.59000000000000008          1.3601317202217917E-019
  0.59299999999999997          4.0233948224454884E-020
  0.59600000000000009         -8.7627820145696210E-020
  0.59899999999999998         -2.3836548208350452E-019
  0.60200000000000009         -3.9726085483927018E-019
  0.60500000000000020         -5.4468181888538837E-019
  0.60800000000000010         -6.5748155465749204E-019
  0.61100000000000021         -7.1119732733390992E-019
  0.61400000000000010         -6.8296229319215802E-019
  0.61700000000000021         -5.5492003383438259E-019
  0.62000000000000011         -3.1780895221740815E-019
  0.62300000000000022          2.5694761034973307E-020
  0.62600000000000011          4.5836273076691640E-019
  0.62900000000000000          9.4703466633198261E-019
  0.63200000000000012          1.4429367850362861E-018
  0.63500000000000001          1.8840437447542159E-018
  0.63800000000000012          2.1996763775424048E-018
  0.64100000000000001          2.3172605615410306E-018
  0.64400000000000013          2.1709242013544230E-018
  0.64700000000000002          1.7112949378813510E-018
  0.65000000000000013          9.1556016003361804E-019
  0.65300000000000002         -2.0335527370936742E-019
  0.65600000000000014         -1.5897674862078549E-018
  0.65900000000000003         -3.1417482826365607E-018
  0.66200000000000014         -4.7123397345347280E-018
  0.66500000000000004         -6.1163601479882955E-018
  0.66800000000000015         -7.1432910580186374E-018
  0.67100000000000004         -7.5760863406868675E-018
  0.67400000000000015         -7.2149903405794060E-018
  0.67700000000000005         -5.9048050919150361E-018
  0.68000000000000016         -3.5632590324370869E-018
  0.68300000000000005         -2.0744110280528933E-019
  0.68600000000000017          4.0249477648044334E-018
  0.68900000000000006          8.8631676147371906E-018
  0.69200000000000017          1.3903157500746179E-017
  0.69500000000000006          1.8621826098897076E-017
  0.69800000000000018          2.2407832247586382E-017
  0.70100000000000007          2.4608861601358083E-017
  0.70400000000000018          2.4593997607160108E-017
  0.70700000000000007          2.1827580559833763E-017
  0.71000000000000019          1.5949107868329874E-017
  0.71300000000000008          6.8524578153920483E-018
  0.71600000000000019         -5.2451036251160826E-018
  0.71900000000000008         -1.9752391816853532E-017
  0.72200000000000020         -3.5682682482077455E-017
  0.72500000000000009         -5.1668378551674470E-017
  0.72800000000000020         -6.6019015080098906E-017
  0.73100000000000009         -7.6825299585428564E-017
  0.73400000000000021         -8.2108717244783469E-017
  0.73700000000000010         -8.0010626745962499E-017
  0.74000000000000021         -6.9010358273314869E-017
  0.74300000000000010         -4.8155703107400525E-017
  0.74600000000000022         -1.7286652008679104E-017
  0.74900000000000011          2.2773173918424737E-017
  0.75200000000000022          7.0082213398486569E-017
  0.75500000000000012          1.2152875392987242E-016
  0.75800000000000001          1.7288400797545037E-016
  0.76100000000000012          2.1897706317690256E-016
  0.76400000000000001          2.5399744243728975E-016
  0.76700000000000013          2.7192487736717890E-016
  0.77000000000000002          2.6707191135807914E-016
  0.77300000000000013          2.3470724686182417E-016
  0.77600000000000002          1.7171696616201520E-016
  0.77900000000000014          7.7253127053293216E-017
  0.78200000000000003         -4.6699434444093692E-017
  0.78500000000000014         -1.9490487250152759E-016
  0.78800000000000003         -3.5867566954774780E-016
  0.79100000000000015         -5.2595328991219406E-016
  0.79400000000000004         -6.8171863098095486E-016
  0.79700000000000015         -8.0876009996500863E-016
  0.80000000000000004         -8.8879960858099546E-016
  0.80300000000000016         -9.0394786813675454E-016
  0.80600000000000005         -8.3841951370081039E-016
  0.80900000000000016         -6.8041427019986320E-016
  0.81200000000000006         -4.2400730482997144E-016
  0.81500000000000017         -7.0910923822923716E-017
  0.81800000000000006          3.6809201233098790E-016
  0.82100000000000017          8.7223658881067975E-016
  0.82400000000000007          1.4105542018812712E-015
  0.82700000000000018          1.9424929830600664E-015
  0.83000000000000007          2.4195159945068857E-015
  0.83300000000000018          2.7876933046921497E-015
  0.83600000000000008          2.9912783040769951E-015
  0.83900000000000019          2.9771554703038795E-015
  0.84200000000000008          2.6999297762322998E-015
  0.84500000000000020          2.1273487905519679E-015
  0.84800000000000009          1.2457165655014137E-015
  0.85100000000000020          6.4765911307340930E-017
  0.85400000000000009         -1.3784675266064365E-015
  0.85700000000000021         -3.0173094655705975E-015
  0.86000000000000010         -4.7550303528407436E-015
  0.86300000000000021         -6.4669622490841775E-015
  0.86600000000000010         -8.0051943126817873E-015
  0.86900000000000022         -9.2061247233031292E-015
  0.87200000000000011         -9.9006664141710222E-015
  0.87500000000000022         -9.9269076070155245E-015
  0.87800000000000011         -9.1446164020036228E-015
  0.88100000000000001         -7.4506087828539931E-015
  0.88400000000000012         -4.7942223356055616E-015
  0.88700000000000001         -1.1915046019051161E-015
  0.89000000000000012          3.2632036496316469E-015
  0.89300000000000002          8.3896149229255894E-015
  0.89600000000000013          1.3919183879753756E-014
  0.89900000000000002          1.9499043332773025E-014
  0.90200000000000014          2.4703290185159828E-014
  0.90500000000000003          2.9051911892356821E-014
  0.90800000000000014          3.2037236272994619E-014
  0.91100000000000003          3.3157296327942316E-014
  0.91400000000000015          3.1954957116819694E-014
  0.91700000000000004          2.8060759291383517E-014
  0.92000000000000015          2.1236858414293321E-014
  0.92300000000000004          1.1418963756880337E-014
  0.92600000000000016         -1.2465990104148931E-015
  0.92900000000000005         -1.6374522666884756E-014
  0.93200000000000016         -3.3325611226356616E-014
  0.93500000000000005         -5.1206506071622501E-014
  0.93800000000000017         -6.8888095603507010E-014
  0.94100000000000006         -8.5044110502419554E-014
  0.94400000000000017         -9.8210874503485865E-014
  0.94700000000000006         -1.0686716150954543E-013
  0.95000000000000018         -1.0953081100667018E-013
  0.95300000000000007         -1.0487158360872159E-013
  0.95600000000000018         -9.1831715706971664E-014
  0.95900000000000007         -6.9746727776402957E-014
  0.96200000000000019         -3.8462713132254366E-014
  0.96500000000000008          1.5627575114988095E-015
  0.96800000000000019          4.9184626915083458E-014
  0.97100000000000009          1.0252920695946284E-013
  0.97400000000000020          1.5899288375573319E-013
  0.97700000000000009          2.1529028004179808E-013
  0.98000000000000020          2.6755728274813493E-013
  0.98300000000000010          3.1150998607497576E-013
  0.98600000000000021          3.4265249942733342E-013
  0.98900000000000010          3.5654082321664665E-013
  0.99200000000000021          3.4908028309047169E-013
  0.99500000000000011          3.1685172418717039E-013
  0.99800000000000022          2.5744343237725504E-013
   1.0010000000000001          1.6977935505101023E-013
   1.0040000000000002          5.4409526289513784E-014
   1.0070000000000001         -8.6256586664039607E-014
   1.0100000000000000         -2.4779429381034809E-013
   1.0130000000000001         -4.2370801787811870E-013
   1.0160000000000000         -6.0549324562000478E-013
   1.0190000000000001         -7.8284033920401177E-013
   1.0220000000000000         -9.4397228943134170E-013
   1.0250000000000001         -1.0761170815157380E-012
   1.0280000000000000         -1.1661329924135434E-012
   1.0310000000000001         -1.2012283217783023E-012
   1.0340000000000000         -1.1697794324160823E-012
   1.0370000000000001         -1.0621977946296801E-012
   1.0400000000000000         -8.7179189653608056E-013
   1.0430000000000001         -5.9561432061276590E-013
   1.0460000000000000         -2.3517474337565878E-013
   1.0490000000000002          2.0297833888825460E-013
   1.0520000000000000          7.0689616230837234E-013
   1.0550000000000002          1.2591426133212911E-012
   1.0580000000000001          1.8369960300499341E-012
   1.0610000000000002          2.4130133155480195E-012
   1.0640000000000001          2.9559279273793688E-012
   1.0670000000000002          3.4319308305550489E-012
   1.0700000000000001          3.8062654684950479E-012
   1.0730000000000002          4.0451318099186363E-012
   1.0760000000000001          4.1178602460982304E-012
   1.0790000000000002          3.9992001806701788E-012
   1.0820000000000001          3.6716714703635928E-012
   1.0850000000000002          3.1278843633553325E-012
   1.0880000000000001          2.3726755080819017E-012
   1.0910000000000002          1.4249580690124468E-012
   1.0940000000000001          3.1905433635327788E-013
   1.0970000000000002         -8.9445222963617786E-013
