 -0.39999999999999997          0.0000000000000000     
 -0.39699999999999996          0.0000000000000000     
 -0.39399999999999996          0.0000000000000000     
 -0.39099999999999996          0.0000000000000000     
 -0.38799999999999996          0.0000000000000000     
 -0.38499999999999995          0.0000000000000000     
 -0.38199999999999995          0.0000000000000000     
 -0.37899999999999995          0.0000000000000000     
 -0.37599999999999995          0.0000000000000000     
 -0.37299999999999994          0.0000000000000000     
 -0.37000000000000000          0.0000000000000000     
 -0.36699999999999999          0.0000000000000000     
 -0.36399999999999999          0.0000000000000000     
 -0.36099999999999999          0.0000000000000000     
 -0.35799999999999998          0.0000000000000000     
 -0.35499999999999998          0.0000000000000000     
 -0.35199999999999998          0.0000000000000000     
 -0.34899999999999998          0.0000000000000000     
 -0.34599999999999997          0.0000000000000000     
 -0.34299999999999997          0.0000000000000000     
 -0.33999999999999997          0.0000000000000000     
 -0.33699999999999997          0.0000000000000000     
 -0.33399999999999996          0.0000000000000000     
 -0.33099999999999996          0.0000000000000000     
 -0.32799999999999996          0.0000000000000000     
 -0.32499999999999996          0.0000000000000000     
 -0.32199999999999995          0.0000000000000000     
 -0.31899999999999995          0.0000000000000000     
 -0.31599999999999995          0.0000000000000000     
 -0.31299999999999994          0.0000000000000000     
 -0.30999999999999994          0.0000000000000000     
 -0.30699999999999994          0.0000000000000000     
 -0.30399999999999994          0.0000000000000000     
 -0.30099999999999993          0.0000000000000000     
 -0.29799999999999993          0.0000000000000000     
 -0.29499999999999998          0.0000000000000000     
 -0.29199999999999998          0.0000000000000000     
 -0.28899999999999998          0.0000000000000000     
 -0.28599999999999998          0.0000000000000000     
 -0.28299999999999997          0.0000000000000000     
 -0.27999999999999997          0.0000000000000000     
 -0.27699999999999997          0.0000000000000000     
 -0.27399999999999997          0.0000000000000000     
 -0.27099999999999996          0.0000000000000000     
 -0.26799999999999996          0.0000000000000000     
 -0.26499999999999996          0.0000000000000000     
 -0.26199999999999996          0.0000000000000000     
 -0.25899999999999995          0.0000000000000000     
 -0.25599999999999995          0.0000000000000000     
 -0.25300000000000000          0.0000000000000000     
 -0.24999999999999997          0.0000000000000000     
 -0.24699999999999997          0.0000000000000000     
 -0.24399999999999997          0.0000000000000000     
 -0.24099999999999996          0.0000000000000000     
 -0.23799999999999996          0.0000000000000000     
 -0.23499999999999996          0.0000000000000000     
 -0.23199999999999996          0.0000000000000000     
 -0.22899999999999995          0.0000000000000000     
 -0.22599999999999995          0.0000000000000000     
 -0.22299999999999998          0.0000000000000000     
 -0.21999999999999997          0.0000000000000000     
 -0.21699999999999997          0.0000000000000000     
 -0.21399999999999997          0.0000000000000000     
 -0.21099999999999997          0.0000000000000000     
 -0.20799999999999996          0.0000000000000000     
 -0.20499999999999996          0.0000000000000000     
 -0.20199999999999996          0.0000000000000000     
 -0.19899999999999995          0.0000000000000000     
 -0.19599999999999995          0.0000000000000000     
 -0.19299999999999995          0.0000000000000000     
 -0.18999999999999997          0.0000000000000000     
 -0.18699999999999997          0.0000000000000000     
 -0.18399999999999997          0.0000000000000000     
 -0.18099999999999997          0.0000000000000000     
 -0.17799999999999996          0.0000000000000000     
 -0.17499999999999996          0.0000000000000000     
 -0.17199999999999996          0.0000000000000000     
 -0.16899999999999996          0.0000000000000000     
 -0.16599999999999995          0.0000000000000000     
 -0.16299999999999995          0.0000000000000000     
 -0.15999999999999998          0.0000000000000000     
 -0.15699999999999997          0.0000000000000000     
 -0.15399999999999997          0.0000000000000000     
 -0.15099999999999997          0.0000000000000000     
 -0.14799999999999996          0.0000000000000000     
 -0.14499999999999996          0.0000000000000000     
 -0.14199999999999996          0.0000000000000000     
 -0.13899999999999996          1.4640057047646832E-041
 -0.13599999999999995          0.0000000000000000     
 -0.13299999999999995         -4.6632086559048515E-041
 -0.12999999999999995          3.8151576391807297E-041
 -0.12699999999999995          1.0772144106182208E-040
 -0.12399999999999994         -9.2244209387518563E-041
 -0.12099999999999994         -5.3569656641342252E-041
 -0.11799999999999994         -1.5947013548619012E-039
 -0.11499999999999994          9.2194332715345980E-040
 -0.11199999999999993          5.9475406337973165E-039
 -0.10899999999999999         -6.3343395923606498E-039
 -0.10599999999999998         -8.5208810656336409E-039
 -0.10299999999999998          6.4708745045941457E-039
  -9.9999999999999978E-002     2.6929091704938960E-038
  -9.6999999999999975E-002     1.0523658141972664E-038
  -9.3999999999999972E-002    -4.9120053525726117E-038
  -9.0999999999999970E-002    -9.7030394018042325E-038
  -8.7999999999999967E-002     3.7109286813168723E-039
  -8.4999999999999964E-002     2.7668130672148775E-037
  -8.1999999999999962E-002     3.8386427126775176E-037
  -7.8999999999999959E-002    -2.1982830228198113E-037
  -7.5999999999999956E-002    -1.3899656609113663E-036
  -7.2999999999999954E-002    -1.4245827626965037E-036
  -6.9999999999999951E-002     1.7451763351279146E-036
  -6.6999999999999948E-002     6.5063353110317910E-036
  -6.3999999999999946E-002     4.9392645073023532E-036
  -6.0999999999999943E-002    -1.0274294894049277E-035
  -5.7999999999999940E-002    -2.8942179573302495E-035
  -5.4999999999999938E-002    -1.6491594079072978E-035
  -5.1999999999999935E-002     5.2343586912673677E-035
  -4.8999999999999932E-002     1.2513804688980904E-034
  -4.5999999999999985E-002     5.5569823869061655E-035
  -4.2999999999999983E-002    -2.4467203014572406E-034
  -3.9999999999999980E-002    -5.3224576834190715E-034
  -3.6999999999999977E-002    -2.0086219959422366E-034
  -3.3999999999999975E-002     1.0713655848003751E-033
  -3.0999999999999972E-002     2.2395284543785321E-033
  -2.7999999999999969E-002     8.3275434724066557E-034
  -2.4999999999999967E-002    -4.4270851435477172E-033
  -2.1999999999999964E-002    -9.3451250468464052E-033
  -1.8999999999999961E-002    -3.9720070462658560E-033
  -1.5999999999999959E-002     1.7250182452744794E-032
  -1.2999999999999956E-002     3.8547758265863248E-032
  -9.9999999999999534E-003     2.0452895391200308E-032
  -6.9999999999999507E-003    -6.2667811718817209E-032
  -3.9999999999999480E-003    -1.5598004391175128E-031
  -9.9999999999994538E-004    -1.0631240469848739E-031
   2.0000000000000573E-003     2.0671704300490887E-031
   5.0000000000000600E-003     6.1230900512359046E-031
   8.0000000000000626E-003     5.3471979960734018E-031
   1.1000000000000065E-002    -5.8176750063754139E-031
   1.4000000000000068E-002    -2.2970986962841955E-030
   1.7000000000000015E-002    -2.5458288191335145E-030
   2.0000000000000018E-002     1.1340341016898022E-030
   2.3000000000000020E-002     8.0676447990429698E-030
   2.6000000000000023E-002     1.1328898147212752E-029
   2.9000000000000026E-002     6.1910391620353552E-031
   3.2000000000000028E-002    -2.5689403665580149E-029
   3.5000000000000031E-002    -4.6599549630221445E-029
   3.8000000000000034E-002    -2.2014243920971718E-029
   4.1000000000000036E-002     6.9638868499090907E-029
   4.4000000000000039E-002     1.7459711291500456E-028
   4.7000000000000042E-002     1.5001050166081338E-028
   5.0000000000000044E-002    -1.3321021865492746E-028
   5.3000000000000047E-002    -5.8133460303563612E-028
   5.6000000000000050E-002    -7.4083706054233707E-028
   5.9000000000000052E-002    -1.8306502323891990E-029
   6.2000000000000055E-002     1.6354143326279586E-027
   6.5000000000000058E-002     3.0024383368548915E-027
   6.8000000000000060E-002     1.8049501949115921E-027
   7.1000000000000063E-002    -3.3753572347695054E-027
   7.4000000000000066E-002    -1.0146168901525092E-026
   7.7000000000000068E-002    -1.1156705456470340E-026
   8.0000000000000016E-002     1.6983820129547762E-027
   8.3000000000000018E-002     2.7377951749450160E-026
   8.6000000000000021E-002     4.6819118413348188E-026
   8.9000000000000024E-002     2.7661172650368211E-026
   9.2000000000000026E-002    -4.8928139705458610E-026
   9.5000000000000029E-002    -1.4978112779942959E-025
   9.8000000000000032E-002    -1.7533654741708983E-025
  0.10100000000000003         -1.1875864145940264E-026
  0.10400000000000004          3.4500103521688228E-025
  0.10700000000000004          6.7172713848933224E-025
  0.11000000000000004          5.4799047382224986E-025
  0.11300000000000004         -3.5120912828336366E-025
  0.11600000000000005         -1.7854421247172566E-024
  0.11900000000000005         -2.6634815992514871E-024
  0.12200000000000005         -1.4365899170031017E-024
  0.12500000000000006          2.6304835665696089E-024
  0.12800000000000006          7.8853038665025912E-024
  0.13100000000000006          9.8213791272070272E-024
  0.13400000000000006          3.2007547188150439E-024
  0.13700000000000007         -1.3162123200489597E-023
  0.14000000000000007         -3.1542150419067571E-023
  0.14300000000000007         -3.5195535604655334E-023
  0.14600000000000007         -7.0908552244618832E-024
  0.14900000000000008          5.3732683922654002E-023
  0.15200000000000008          1.1765082053531767E-022
  0.15500000000000008          1.2689446303188681E-022
  0.15800000000000008          2.5935788396181678E-023
  0.16100000000000009         -1.8629676476896456E-022
  0.16400000000000009         -4.1240077813385352E-022
  0.16700000000000009         -4.6510917149884823E-022
  0.17000000000000010         -1.5914791218579720E-022
  0.17300000000000010          5.3178506467337811E-022
  0.17600000000000010          1.3366595780659237E-021
  0.17899999999999999          1.6910076742820202E-021
  0.18200000000000000          9.7397453444469617E-022
  0.18500000000000000         -1.0529669622181585E-021
  0.18800000000000000         -3.8075190652748446E-021
  0.19100000000000000         -5.7693150283039751E-021
  0.19400000000000001         -4.9602091022005605E-021
  0.19700000000000001         -3.6942182537841820E-023
  0.20000000000000001          8.3963430108212723E-021
  0.20300000000000001          1.7001283883735373E-020
  0.20600000000000002          2.0235726631851645E-020
  0.20900000000000002          1.2565886340528797E-020
  0.21200000000000002         -8.1200758517226080E-021
  0.21500000000000002         -3.7316542279385434E-020
  0.21800000000000003         -6.2877069532757319E-020
  0.22100000000000003         -6.7789973417639996E-020
  0.22400000000000003         -3.7037720812329386E-020
  0.22700000000000004          3.3217537906560931E-020
  0.23000000000000004          1.2783784764313608E-019
  0.23300000000000004          2.1089511683318593E-019
  0.23600000000000004          2.3340146276129498E-019
  0.23900000000000005          1.5101224738756741E-019
  0.24200000000000005         -5.2413613683910299E-020
  0.24500000000000005         -3.4387647777154652E-019
  0.24800000000000005         -6.3355204153030716E-019
  0.25100000000000006         -7.8918184917709471E-019
  0.25400000000000006         -6.7503562674207144E-019
  0.25700000000000006         -2.0833246301716192E-019
  0.26000000000000006          5.8380372705664774E-019
  0.26300000000000007          1.5297898345940667E-018
  0.26600000000000007          2.3229708192002167E-018
  0.26900000000000007          2.5862669694087192E-018
  0.27200000000000008          1.9860624944895712E-018
  0.27500000000000008          3.6969935812054191E-019
  0.27800000000000008         -2.1144522760431308E-018
  0.28100000000000008         -4.9603043258808544E-018
  0.28400000000000009         -7.3476977661516487E-018
  0.28700000000000009         -8.3007615671333381E-018
  0.29000000000000009         -6.9436998807039205E-018
  0.29300000000000009         -2.8036125446435587E-018
  0.29600000000000010          3.9156984805443711E-018
  0.29900000000000010          1.2174967500189140E-017
  0.30200000000000010          2.0130424333189901E-017
  0.30499999999999999          2.5395685379477315E-017
  0.30800000000000000          2.5524079521349918E-017
  0.31100000000000000          1.8641347779836373E-017
  0.31400000000000000          4.1045473002470659E-018
  0.31700000000000000         -1.6970607339335707E-017
  0.32000000000000001         -4.1473423792729038E-017
  0.32300000000000001         -6.4476429695539273E-017
  0.32600000000000001         -7.9881622576269742E-017
  0.32900000000000001         -8.1495186828847813E-017
  0.33200000000000002         -6.4391747684423295E-017
  0.33500000000000002         -2.6343443225804217E-017
  0.33800000000000002          3.0965978123774650E-017
  0.34100000000000003          1.0123136314720259E-016
  0.34400000000000003          1.7356850269617092E-016
  0.34700000000000003          2.3346347234506680E-016
  0.35000000000000003          2.6464929008246284E-016
  0.35300000000000004          2.5177204699329164E-016
  0.35600000000000004          1.8354444226482618E-016
  0.35900000000000004          5.5945350964415442E-017
  0.36200000000000004         -1.2507655892051172E-016
  0.36500000000000005         -3.4196623819149235E-016
  0.36800000000000005         -5.6552003515987377E-016
  0.37100000000000005         -7.5682345911103650E-016
  0.37400000000000005         -8.7133048549536265E-016
  0.37700000000000006         -8.6494056533127061E-016
  0.38000000000000006         -7.0158194137617682E-016
  0.38300000000000006         -3.6145152594388756E-016
  0.38600000000000007          1.5123710599970843E-016
  0.38900000000000007          8.0235080964252903E-016
  0.39200000000000007          1.5251609301615322E-015
  0.39500000000000007          2.2221144596340704E-015
  0.39800000000000008          2.7718776239261828E-015
  0.40100000000000008          3.0418824994847728E-015
  0.40400000000000008          2.9058232910905507E-015
  0.40700000000000008          2.2646804113342820E-015
  0.41000000000000009          1.0690131758323191E-015
  0.41300000000000009         -6.6046932120883920E-016
  0.41600000000000009         -2.8174614580150804E-015
  0.41900000000000009         -5.2031677049878272E-015
  0.42200000000000010         -7.5309480671308799E-015
  0.42500000000000010         -9.4445143761106319E-015
  0.42800000000000010         -1.0550281766023404E-014
  0.43100000000000011         -1.0462631588203038E-014
  0.43400000000000000         -8.8589303443191047E-015
  0.43700000000000000         -5.5391123273356300E-015
  0.44000000000000000         -4.8305256662429158E-016
  0.44300000000000000          6.1021892097223517E-015
  0.44600000000000001          1.3753452188638710E-014
  0.44900000000000001          2.1748542990607780E-014
  0.45200000000000001          2.9135202316452482E-014
  0.45500000000000002          3.4795295362693703E-014
  0.45800000000000002          3.7543970493086150E-014
  0.46100000000000002          3.6259414362981339E-014
  0.46400000000000002          3.0034235511327049E-014
  0.46700000000000003          1.8335378514745915E-014
  0.47000000000000003          1.1558186024758180E-015
  0.47300000000000003         -2.0861146697844621E-014
  0.47600000000000003         -4.6344675105032474E-014
  0.47900000000000004         -7.3184934007154708E-014
  0.48200000000000004         -9.8602054666473516E-014
  0.48500000000000004         -1.1930479752126037E-013
  0.48800000000000004         -1.3173999293441276E-013
  0.49100000000000005         -1.3242461022473132E-013
  0.49400000000000005         -1.1834169517507258E-013
  0.49700000000000005         -8.7371497666958393E-014
  0.50000000000000000         -3.8719389508323099E-014
  0.50300000000000011          2.6704197810275870E-014
  0.50600000000000001          1.0600088065667650E-013
  0.50900000000000012          1.9414581991743177E-013
  0.51200000000000001          2.8403669977350274E-013
  0.51500000000000012          3.6676151038705402E-013
  0.51800000000000002          4.3210114172044613E-013
  0.52100000000000013          4.6926341615490724E-013
  0.52400000000000002          4.6782097658076454E-013
  0.52700000000000014          4.1880370212013889E-013
  0.53000000000000003          3.1587004766350853E-013
  0.53300000000000014          1.5646392879442693E-013
  0.53600000000000003         -5.7153133656613851E-014
  0.53900000000000015         -3.1711130259014291E-013
  0.54200000000000004         -6.0949896268713152E-013
  0.54500000000000015         -9.1438958282674929E-013
  0.54800000000000004         -1.2064069848715480E-012
  0.55100000000000016         -1.4558787879149995E-012
  0.55400000000000005         -1.6305766529327190E-012
  0.55700000000000016         -1.6980005168660682E-012
  0.56000000000000005         -1.6281004075887742E-012
  0.56299999999999994         -1.3962908637245106E-012
  0.56600000000000006         -9.8654320562152064E-013
  0.56899999999999995         -3.9432216900044884E-013
  0.57200000000000006          3.7090755047700456E-013
  0.57499999999999996          1.2838817172538865E-012
  0.57800000000000007          2.3027096770356428E-012
  0.58099999999999996          3.3692493379326648E-012
  0.58400000000000007          4.4108659348918141E-012
  0.58699999999999997          5.3436522754021005E-012
  0.59000000000000008          6.0771267681505323E-012
  0.59299999999999997          6.5202823155620698E-012
  0.59600000000000009          6.5887562405455358E-012
  0.59899999999999998          6.2127767909461914E-012
  0.60200000000000009          5.3454342552519989E-012
  0.60500000000000020          3.9707139677095989E-012
  0.60800000000000010          2.1107104811242202E-012
  0.61100000000000021         -1.6862718635483796E-013
  0.61400000000000010         -2.7538470000482781E-012
  0.61700000000000021         -5.4829917188314565E-012
  0.62000000000000011         -8.1477347647562349E-012
  0.62300000000000022         -1.0498968300116616E-011
  0.62600000000000011         -1.2256021621502536E-011
  0.62900000000000000         -1.3119442082577397E-011
  0.63200000000000012         -1.2787117060756728E-011
  0.63500000000000001         -1.0973225667067881E-011
  0.63800000000000012         -7.4293644762068770E-012
  0.64100000000000001         -1.9669792262894236E-012
  0.64400000000000013          5.5198909594615325E-012
  0.64700000000000002          1.5032606744388542E-011
  0.65000000000000013          2.6447773489474567E-011
  0.65300000000000002          3.9499869294368126E-011
  0.65600000000000014          5.3767617317790190E-011
  0.65900000000000003          6.8664698983443053E-011
  0.66200000000000014          8.3435040431522242E-011
  0.66500000000000004          9.7152879655879479E-011
  0.66800000000000015          1.0872702677099106E-010
  0.67100000000000004          1.1690843344433894E-010
  0.67400000000000015          1.2029996183090821E-010
  0.67700000000000005          1.1736643100283681E-010
  0.68000000000000016          1.0644279194962296E-010
  0.68300000000000005          8.5738345600624619E-011
  0.68600000000000017          5.3333619966710110E-011
  0.68900000000000006          7.1678565565070855E-012
  0.69200000000000017         -5.4986478922619837E-011
  0.69500000000000006         -1.3556479358596504E-010
  0.69800000000000018         -2.3726975119138810E-010
  0.70100000000000007         -3.6315165460108089E-010
  0.70400000000000018         -5.1671204205099056E-010
  0.70700000000000007         -7.0203212808416541E-010
  0.71000000000000019         -9.2392784115991135E-010
  0.71300000000000008         -1.1881330823566804E-009
  0.71600000000000019         -1.5015101194021122E-009
  0.71900000000000008         -1.8722908913036536E-009
  0.72200000000000020         -2.3103474802405594E-009
  0.72500000000000009         -2.8274904131969179E-009
  0.72800000000000020         -3.4378003590743111E-009
  0.73100000000000009         -4.1579880227940514E-009
  0.73400000000000021         -5.0077907687546060E-009
  0.73700000000000010         -6.0103901015542922E-009
  0.74000000000000021         -7.1928856345376661E-009
  0.74300000000000010         -8.5867813565971442E-009
  0.74600000000000022         -1.0228537447909861E-008
  0.74900000000000011         -1.2160142157108586E-008
  0.75200000000000022         -1.4429757559144939E-008
  0.75500000000000012         -1.7092391470743111E-008
  0.75800000000000001         -2.0210651662749550E-008
  0.76100000000000012         -2.3855539010357275E-008
  0.76400000000000001         -2.8107335516112119E-008
  0.76700000000000013         -3.3056530153407439E-008
  0.77000000000000002         -3.8804819005082179E-008
  0.77300000000000013         -4.5466231939029906E-008
  0.77600000000000002         -5.3168238148688110E-008
  0.77900000000000014         -6.2053034051287432E-008
  0.78200000000000003         -7.2278747833604938E-008
  0.78500000000000014         -8.4020859476967667E-008
  0.78800000000000003         -9.7473520700350064E-008
  0.79100000000000015         -1.1285102939986873E-007
  0.79400000000000004         -1.3038925461671700E-007
  0.79700000000000015         -1.5034697645338781E-007
  0.80000000000000004         -1.7300732206913121E-007
  0.80300000000000016         -1.9867904218914343E-007
  0.80600000000000005         -2.2769766520391922E-007
  0.80900000000000016         -2.6042667210628210E-007
  0.81200000000000006         -2.9725818509277540E-007
  0.81500000000000017         -3.3861374844983742E-007
  0.81800000000000006         -3.8494456615024908E-007
  0.82100000000000017         -4.3673170003994988E-007
  0.82400000000000007         -4.9448535663085099E-007
  0.82700000000000018         -5.5874416099936339E-007
  0.83000000000000007         -6.3007466939555922E-007
  0.83300000000000018         -7.0906772544734938E-007
  0.83600000000000008         -7.9633801991000631E-007
  0.83900000000000019         -8.9251875845380870E-007
  0.84200000000000008         -9.9825924003185372E-007
  0.84500000000000020         -1.1142192765081485E-006
  0.84800000000000009         -1.2410640988098963E-006
  0.85100000000000020         -1.3794581540168777E-006
  0.85400000000000009         -1.5300553341994737E-006
  0.85700000000000021         -1.6934928898469100E-006
  0.86000000000000010         -1.8703809936120697E-006
  0.86300000000000021         -2.0612932336028575E-006
  0.86600000000000010         -2.2667524127611457E-006
  0.86900000000000022         -2.4872196548429465E-006
  0.87200000000000011         -2.7230835730406193E-006
  0.87500000000000022         -2.9746405231922574E-006
  0.87800000000000011         -3.2420834440834924E-006
  0.88100000000000001         -3.5254832785839446E-006
  0.88400000000000012         -3.8247765146786508E-006
  0.88700000000000001         -4.1397412298961963E-006
  0.89000000000000012         -4.4699869425480717E-006
  0.89300000000000002         -4.8149369673306268E-006
  0.89600000000000013         -5.1738048518084280E-006
  0.89900000000000002         -5.5455866924128789E-006
  0.90200000000000014         -5.9290387251519273E-006
  0.90500000000000003         -6.3226677049658651E-006
  0.90800000000000014         -6.7247136822382166E-006
  0.91100000000000003         -7.1331451195324553E-006
  0.91400000000000015         -7.5456483586936731E-006
  0.91700000000000004         -7.9596115636622990E-006
  0.92000000000000015         -8.3721343260318604E-006
  0.92300000000000004         -8.7800268246008163E-006
  0.92600000000000016         -9.1798045813100693E-006
  0.92900000000000005         -9.5677095774961667E-006
  0.93200000000000016         -9.9397034100038576E-006
  0.93500000000000005         -1.0291510327125519E-005
  0.93800000000000017         -1.0618613390465098E-005
  0.94100000000000006         -1.0916296597951008E-005
  0.94400000000000017         -1.1179678796192689E-005
  0.94700000000000006         -1.1403735293388486E-005
  0.95000000000000018         -1.1583367834251852E-005
  0.95300000000000007         -1.1713411279431191E-005
  0.95600000000000018         -1.1788723179085424E-005
  0.95900000000000007         -1.1804222581600690E-005
  0.96200000000000019         -1.1754954857825241E-005
  0.96500000000000008         -1.1636156033918935E-005
  0.96800000000000019         -1.1443314706680385E-005
  0.97100000000000009         -1.1172226603701963E-005
  0.97400000000000020         -1.0819118855250350E-005
  0.97700000000000009         -1.0380638876641032E-005
  0.98000000000000020         -9.8540181049793967E-006
  0.98300000000000010         -9.2370656208776314E-006
  0.98600000000000021         -8.5282566573268157E-006
  0.98900000000000010         -7.7268230124435712E-006
  0.99200000000000021         -6.8327418786825183E-006
  0.99500000000000011         -5.8468733718827726E-006
  0.99800000000000022         -4.7709374770629725E-006
   1.0010000000000001         -3.6075932998894163E-006
   1.0040000000000002         -2.3604170220275142E-006
   1.0070000000000001         -1.0339935239342444E-006
   1.0100000000000000          3.6613307971517364E-007
   1.0130000000000001          1.8334866566589334E-006
   1.0160000000000000          3.3606276212155451E-006
   1.0190000000000001          4.9391896710139900E-006
   1.0220000000000000          6.5599344566414268E-006
   1.0250000000000001          8.2128345842307738E-006
   1.0280000000000000          9.8870922606653622E-006
   1.0310000000000001          1.1571252767488086E-005
   1.0340000000000000          1.3253309849392420E-005
   1.0370000000000001          1.4920790552874695E-005
   1.0400000000000000          1.6560848450383363E-005
   1.0430000000000001          1.8160419643278350E-005
   1.0460000000000000          1.9706372777508637E-005
   1.0490000000000002          2.1185584488319206E-005
   1.0520000000000000          2.2585153508053025E-005
   1.0550000000000002          2.3892468328470742E-005
   1.0580000000000001          2.5095427271569108E-005
   1.0610000000000002          2.6182525580102071E-005
   1.0640000000000001          2.7143002479228873E-005
   1.0670000000000002          2.7967016569383393E-005
   1.0700000000000001          2.8645729260462244E-005
   1.0730000000000002          2.9171421611745904E-005
   1.0760000000000001          2.9537612928297071E-005
   1.0790000000000002          2.9739164478105033E-005
   1.0820000000000001          2.9772337971755849E-005
   1.0850000000000002          2.9634845856290542E-005
   1.0880000000000001          2.9325930512004517E-005
   1.0910000000000002          2.8846372525441648E-005
   1.0940000000000001          2.8198489528787491E-005
   1.0970000000000002          2.7386125600869923E-005
