 -0.39999999999999997          0.0000000000000000     
 -0.39699999999999996          0.0000000000000000     
 -0.39399999999999996          0.0000000000000000     
 -0.39099999999999996          0.0000000000000000     
 -0.38799999999999996          0.0000000000000000     
 -0.38499999999999995          0.0000000000000000     
 -0.38199999999999995          0.0000000000000000     
 -0.37899999999999995          0.0000000000000000     
 -0.37599999999999995          0.0000000000000000     
 -0.37299999999999994          0.0000000000000000     
 -0.37000000000000000          0.0000000000000000     
 -0.36699999999999999          0.0000000000000000     
 -0.36399999999999999          0.0000000000000000     
 -0.36099999999999999          0.0000000000000000     
 -0.35799999999999998          0.0000000000000000     
 -0.35499999999999998          0.0000000000000000     
 -0.35199999999999998          0.0000000000000000     
 -0.34899999999999998          0.0000000000000000     
 -0.34599999999999997          0.0000000000000000     
 -0.34299999999999997          0.0000000000000000     
 -0.33999999999999997          0.0000000000000000     
 -0.33699999999999997          0.0000000000000000     
 -0.33399999999999996          0.0000000000000000     
 -0.33099999999999996          0.0000000000000000     
 -0.32799999999999996          0.0000000000000000     
 -0.32499999999999996          0.0000000000000000     
 -0.32199999999999995          0.0000000000000000     
 -0.31899999999999995          0.0000000000000000     
 -0.31599999999999995          0.0000000000000000     
 -0.31299999999999994          0.0000000000000000     
 -0.30999999999999994          0.0000000000000000     
 -0.30699999999999994          0.0000000000000000     
 -0.30399999999999994          0.0000000000000000     
 -0.30099999999999993          0.0000000000000000     
 -0.29799999999999993          0.0000000000000000     
 -0.29499999999999998          0.0000000000000000     
 -0.29199999999999998          0.0000000000000000     
 -0.28899999999999998          0.0000000000000000     
 -0.28599999999999998          0.0000000000000000     
 -0.28299999999999997          0.0000000000000000     
 -0.27999999999999997          0.0000000000000000     
 -0.27699999999999997          0.0000000000000000     
 -0.27399999999999997          0.0000000000000000     
 -0.27099999999999996          0.0000000000000000     
 -0.26799999999999996          0.0000000000000000     
 -0.26499999999999996          0.0000000000000000     
 -0.26199999999999996          0.0000000000000000     
 -0.25899999999999995          0.0000000000000000     
 -0.25599999999999995          0.0000000000000000     
 -0.25300000000000000          0.0000000000000000     
 -0.24999999999999997          0.0000000000000000     
 -0.24699999999999997          0.0000000000000000     
 -0.24399999999999997          0.0000000000000000     
 -0.24099999999999996          0.0000000000000000     
 -0.23799999999999996          0.0000000000000000     
 -0.23499999999999996          0.0000000000000000     
 -0.23199999999999996          0.0000000000000000     
 -0.22899999999999995          0.0000000000000000     
 -0.22599999999999995          0.0000000000000000     
 -0.22299999999999998          0.0000000000000000     
 -0.21999999999999997          0.0000000000000000     
 -0.21699999999999997          0.0000000000000000     
 -0.21399999999999997          0.0000000000000000     
 -0.21099999999999997          0.0000000000000000     
 -0.20799999999999996          0.0000000000000000     
 -0.20499999999999996          0.0000000000000000     
 -0.20199999999999996          0.0000000000000000     
 -0.19899999999999995          0.0000000000000000     
 -0.19599999999999995          0.0000000000000000     
 -0.19299999999999995          0.0000000000000000     
 -0.18999999999999997          0.0000000000000000     
 -0.18699999999999997          0.0000000000000000     
 -0.18399999999999997          0.0000000000000000     
 -0.18099999999999997          0.0000000000000000     
 -0.17799999999999996          0.0000000000000000     
 -0.17499999999999996          0.0000000000000000     
 -0.17199999999999996          0.0000000000000000     
 -0.16899999999999996          0.0000000000000000     
 -0.16599999999999995          0.0000000000000000     
 -0.16299999999999995          0.0000000000000000     
 -0.15999999999999998          0.0000000000000000     
 -0.15699999999999997          0.0000000000000000     
 -0.15399999999999997          0.0000000000000000     
 -0.15099999999999997          0.0000000000000000     
 -0.14799999999999996          0.0000000000000000     
 -0.14499999999999996          0.0000000000000000     
 -0.14199999999999996          0.0000000000000000     
 -0.13899999999999996          0.0000000000000000     
 -0.13599999999999995          0.0000000000000000     
 -0.13299999999999995          0.0000000000000000     
 -0.12999999999999995          0.0000000000000000     
 -0.12699999999999995          0.0000000000000000     
 -0.12399999999999994          0.0000000000000000     
 -0.12099999999999994          0.0000000000000000     
 -0.11799999999999994          0.0000000000000000     
 -0.11499999999999994          0.0000000000000000     
 -0.11199999999999993          0.0000000000000000     
 -0.10899999999999999          0.0000000000000000     
 -0.10599999999999998          0.0000000000000000     
 -0.10299999999999998          0.0000000000000000     
  -9.9999999999999978E-002     0.0000000000000000     
  -9.6999999999999975E-002     0.0000000000000000     
  -9.3999999999999972E-002     0.0000000000000000     
  -9.0999999999999970E-002     0.0000000000000000     
  -8.7999999999999967E-002     0.0000000000000000     
  -8.4999999999999964E-002     0.0000000000000000     
  -8.1999999999999962E-002     0.0000000000000000     
  -7.8999999999999959E-002     0.0000000000000000     
  -7.5999999999999956E-002     0.0000000000000000     
  -7.2999999999999954E-002     0.0000000000000000     
  -6.9999999999999951E-002     0.0000000000000000     
  -6.6999999999999948E-002     0.0000000000000000     
  -6.3999999999999946E-002     0.0000000000000000     
  -6.0999999999999943E-002     0.0000000000000000     
  -5.7999999999999940E-002     0.0000000000000000     
  -5.4999999999999938E-002     0.0000000000000000     
  -5.1999999999999935E-002     0.0000000000000000     
  -4.8999999999999932E-002     0.0000000000000000     
  -4.5999999999999985E-002     0.0000000000000000     
  -4.2999999999999983E-002     0.0000000000000000     
  -3.9999999999999980E-002     0.0000000000000000     
  -3.6999999999999977E-002     0.0000000000000000     
  -3.3999999999999975E-002     0.0000000000000000     
  -3.0999999999999972E-002     0.0000000000000000     
  -2.7999999999999969E-002     0.0000000000000000     
  -2.4999999999999967E-002     0.0000000000000000     
  -2.1999999999999964E-002     0.0000000000000000     
  -1.8999999999999961E-002     0.0000000000000000     
  -1.5999999999999959E-002     0.0000000000000000     
  -1.2999999999999956E-002     0.0000000000000000     
  -9.9999999999999534E-003     0.0000000000000000     
  -6.9999999999999507E-003     0.0000000000000000     
  -3.9999999999999480E-003     0.0000000000000000     
  -9.9999999999994538E-004     0.0000000000000000     
   2.0000000000000573E-003     0.0000000000000000     
   5.0000000000000600E-003     0.0000000000000000     
   8.0000000000000626E-003     0.0000000000000000     
   1.1000000000000065E-002     0.0000000000000000     
   1.4000000000000068E-002     0.0000000000000000     
   1.7000000000000015E-002     0.0000000000000000     
   2.0000000000000018E-002     0.0000000000000000     
   2.3000000000000020E-002     0.0000000000000000     
   2.6000000000000023E-002     0.0000000000000000     
   2.9000000000000026E-002     0.0000000000000000     
   3.2000000000000028E-002     0.0000000000000000     
   3.5000000000000031E-002     0.0000000000000000     
   3.8000000000000034E-002     0.0000000000000000     
   4.1000000000000036E-002     0.0000000000000000     
   4.4000000000000039E-002     0.0000000000000000     
   4.7000000000000042E-002     0.0000000000000000     
   5.0000000000000044E-002     0.0000000000000000     
   5.3000000000000047E-002     0.0000000000000000     
   5.6000000000000050E-002     0.0000000000000000     
   5.9000000000000052E-002     0.0000000000000000     
   6.2000000000000055E-002     0.0000000000000000     
   6.5000000000000058E-002     0.0000000000000000     
   6.8000000000000060E-002     0.0000000000000000     
   7.1000000000000063E-002     0.0000000000000000     
   7.4000000000000066E-002     0.0000000000000000     
   7.7000000000000068E-002     0.0000000000000000     
   8.0000000000000016E-002     0.0000000000000000     
   8.3000000000000018E-002     0.0000000000000000     
   8.6000000000000021E-002     0.0000000000000000     
   8.9000000000000024E-002     0.0000000000000000     
   9.2000000000000026E-002     0.0000000000000000     
   9.5000000000000029E-002     0.0000000000000000     
   9.8000000000000032E-002     0.0000000000000000     
  0.10100000000000003          0.0000000000000000     
  0.10400000000000004          0.0000000000000000     
  0.10700000000000004          0.0000000000000000     
  0.11000000000000004          0.0000000000000000     
  0.11300000000000004          0.0000000000000000     
  0.11600000000000005          0.0000000000000000     
  0.11900000000000005          0.0000000000000000     
  0.12200000000000005          0.0000000000000000     
  0.12500000000000006          0.0000000000000000     
  0.12800000000000006          0.0000000000000000     
  0.13100000000000006          0.0000000000000000     
  0.13400000000000006          0.0000000000000000     
  0.13700000000000007          0.0000000000000000     
  0.14000000000000007          0.0000000000000000     
  0.14300000000000007          0.0000000000000000     
  0.14600000000000007          0.0000000000000000     
  0.14900000000000008          0.0000000000000000     
  0.15200000000000008          0.0000000000000000     
  0.15500000000000008          0.0000000000000000     
  0.15800000000000008          0.0000000000000000     
  0.16100000000000009          0.0000000000000000     
  0.16400000000000009          0.0000000000000000     
  0.16700000000000009          0.0000000000000000     
  0.17000000000000010          0.0000000000000000     
  0.17300000000000010          0.0000000000000000     
  0.17600000000000010          0.0000000000000000     
  0.17899999999999999          0.0000000000000000     
  0.18200000000000000          0.0000000000000000     
  0.18500000000000000          0.0000000000000000     
  0.18800000000000000          0.0000000000000000     
  0.19100000000000000          0.0000000000000000     
  0.19400000000000001          0.0000000000000000     
  0.19700000000000001          0.0000000000000000     
  0.20000000000000001          0.0000000000000000     
  0.20300000000000001          0.0000000000000000     
  0.20600000000000002          0.0000000000000000     
  0.20900000000000002          0.0000000000000000     
  0.21200000000000002          0.0000000000000000     
  0.21500000000000002          0.0000000000000000     
  0.21800000000000003          0.0000000000000000     
  0.22100000000000003         -1.1960944251965671E-041
  0.22400000000000003          4.0517600317028989E-041
  0.22700000000000004          6.4434140318120727E-041
  0.23000000000000004         -1.4301704866886897E-040
  0.23300000000000004         -7.6498908969905092E-040
  0.23600000000000004         -8.3692198140952246E-041
  0.23900000000000005          4.7938470364838427E-040
  0.24200000000000005          2.0658777962249384E-039
  0.24500000000000005          6.5075004643872685E-040
  0.24800000000000005          9.1708724631142768E-041
  0.25100000000000006          1.2452676301846246E-039
  0.25400000000000006         -3.1225384364976232E-039
  0.25700000000000006          7.0639575129019990E-039
  0.26000000000000006          9.6597645168951484E-039
  0.26300000000000007          1.2087509909115463E-038
  0.26600000000000007         -1.8151623718554738E-039
  0.26900000000000007         -1.9783189745107792E-038
  0.27200000000000008         -4.0535329303172491E-038
  0.27500000000000008         -5.1716494456294052E-038
  0.27800000000000008         -3.1689583648614692E-038
  0.28100000000000008          2.5565356977302803E-038
  0.28400000000000009          1.1866523661100507E-037
  0.28700000000000009          2.1327386059105799E-037
  0.29000000000000009          2.4619417327792565E-037
  0.29300000000000009          1.4180405583709723E-037
  0.29600000000000010         -1.4915648112969017E-037
  0.29900000000000010         -5.9680591436731911E-037
  0.30200000000000010         -1.0473813137109288E-036
  0.30499999999999999         -1.2200185456634831E-036
  0.30800000000000000         -7.7784460176431853E-037
  0.31100000000000000          5.1379941168526465E-037
  0.31400000000000000          2.5701616855324628E-036
  0.31700000000000000          4.7923647966168407E-036
  0.32000000000000001          6.0211930457438654E-036
  0.32300000000000001          4.7705461930401686E-036
  0.32600000000000001         -1.9041993659119655E-037
  0.32900000000000001         -8.9771356147696053E-036
  0.33200000000000002         -1.9715797110982160E-035
  0.33500000000000002         -2.8103759007389528E-035
  0.33800000000000002         -2.7925114073781502E-035
  0.34100000000000003         -1.2900851630803871E-035
  0.34400000000000003          2.0165461138367469E-035
  0.34700000000000003          6.7646337070632720E-035
  0.35000000000000003          1.1618756541067516E-034
  0.35300000000000004          1.4258257536379128E-034
  0.35600000000000004          1.1826708948690717E-034
  0.35900000000000004          1.9270743916484494E-035
  0.36200000000000004         -1.5952699608984054E-034
  0.36500000000000005         -3.8964463301635115E-034
  0.36800000000000005         -6.0007819013982218E-034
  0.37100000000000005         -6.8176073294521984E-034
  0.37400000000000005         -5.1159671623928236E-034
  0.37700000000000006          2.5188794662552577E-036
  0.38000000000000006          8.6238557722175825E-034
  0.38300000000000006          1.9224654145544694E-033
  0.38600000000000007          2.8602757553822339E-033
  0.38900000000000007          3.2024157269965544E-033
  0.39200000000000007          2.4278216735680941E-033
  0.39500000000000007          1.5094961319184026E-034
  0.39800000000000008         -3.6425020678986660E-033
  0.40100000000000008         -8.3704190074458411E-033
  0.40400000000000008         -1.2733070763201937E-032
  0.40700000000000008         -1.4800091014264512E-032
  0.41000000000000009         -1.2387097811842315E-032
  0.41300000000000009         -3.7383402434607429E-033
  0.41600000000000009          1.1572617744489258E-032
  0.41900000000000009          3.1738287974203932E-032
  0.42200000000000010          5.2135201944161001E-032
  0.42500000000000010          6.5443745255570492E-032
  0.42800000000000010          6.2794542905493018E-032
  0.43100000000000011          3.6070550769086531E-032
  0.43400000000000000         -1.8841430369170782E-032
  0.43700000000000000         -9.8485037527214926E-032
  0.44000000000000000         -1.8901058935506259E-031
  0.44300000000000000         -2.6541772601530540E-031
  0.44600000000000001         -2.9414691463759665E-031
  0.44900000000000001         -2.3981736260296485E-031
  0.45200000000000001         -7.5940041405038275E-032
  0.45500000000000002          2.0192949405259373E-031
  0.45800000000000002          5.6363946478488378E-031
  0.46100000000000002          9.3675917163879401E-031
  0.46400000000000002          1.2084928407862148E-030
  0.46700000000000003          1.2411059346571135E-030
  0.47000000000000003          9.0242732270021601E-031
  0.47300000000000003          1.0909749234433798E-031
  0.47600000000000003         -1.1246455766796303E-030
  0.47900000000000004         -2.6447181693437071E-030
  0.48200000000000004         -4.1369678090038241E-030
  0.48500000000000004         -5.1447895386181399E-030
  0.48800000000000004         -5.1362978198901665E-030
  0.49100000000000005         -3.6235835566831888E-030
  0.49400000000000005         -3.2283313345196410E-031
  0.49700000000000005          4.6722395858832037E-030
  0.50000000000000000          1.0746486106431973E-029
  0.50300000000000011          1.6701561309268978E-029
  0.50600000000000001          2.0828128059637150E-029
  0.50900000000000012          2.1148798927841890E-029
  0.51200000000000001          1.5837468109351642E-029
  0.51500000000000012          3.7758908411257859E-030
  0.51800000000000002         -1.4843732306429688E-029
  0.52100000000000013         -3.8009912056341379E-029
  0.52400000000000002         -6.1647259039703886E-029
  0.52700000000000014         -7.9805489206511957E-029
  0.53000000000000003         -8.5406360213358123E-029
  0.53300000000000014         -7.1579769830755304E-029
  0.53600000000000003         -3.3483633168536026E-029
  0.53900000000000015          2.9657665997102500E-029
  0.54200000000000004          1.1271572363680689E-028
  0.54500000000000015          2.0354881282682159E-028
  0.54800000000000004          2.8316678131508111E-028
  0.55100000000000016          3.2761123767500919E-028
  0.55400000000000005          3.1174420369238297E-028
  0.55700000000000016          2.1475624011369413E-028
  0.56000000000000005          2.6736962596529450E-029
  0.56299999999999994         -2.4483324351100538E-028
  0.56600000000000006         -5.7019472204504820E-028
  0.56899999999999995         -8.9571739644790858E-028
  0.57200000000000006         -1.1471442586724223E-027
  0.57499999999999996         -1.2386513931402517E-027
  0.57800000000000007         -1.0877568970449610E-027
  0.58099999999999996         -6.3481425564256666E-028
  0.58400000000000007          1.3557696207472375E-028
  0.58699999999999997          1.1752417979609453E-027
  0.59000000000000008          2.3600451562684650E-027
  0.59299999999999997          3.4894357234490578E-027
  0.59600000000000009          4.3020190433664859E-027
  0.59899999999999998          4.5092355521269303E-027
  0.60200000000000009          3.8460935770601073E-027
  0.60500000000000020          2.1341315414087222E-027
  0.60800000000000010         -6.5230762129421889E-028
  0.61100000000000021         -4.3288223064782391E-027
  0.61400000000000010         -8.4670916770556538E-027
  0.61700000000000021         -1.2398597547002449E-026
  0.62000000000000011         -1.5267030962279453E-026
  0.62300000000000022         -1.6134363216304988E-026
  0.62600000000000011         -1.4136719025036382E-026
  0.62900000000000000         -8.6754599351909385E-027
  0.63200000000000012          3.8217081201898136E-028
  0.63500000000000001          1.2527744571066602E-026
  0.63800000000000012          2.6502194615331059E-026
  0.64100000000000001          4.0292157264404184E-026
  0.64400000000000013          5.1264387302511946E-026
  0.64700000000000002          5.6454354884901336E-026
  0.65000000000000013          5.3002300185049270E-026
  0.65300000000000002          3.8701738769291918E-026
  0.65600000000000014          1.2595260623805114E-026
  0.65900000000000003         -2.4472920155105630E-026
  0.66200000000000014         -6.9456857727602819E-026
  0.66500000000000004         -1.1697337822779022E-025
  0.66800000000000015         -1.5952940784990222E-025
  0.67100000000000004         -1.8817487064651481E-025
  0.67400000000000015         -1.9359099994569760E-025
  0.67700000000000005         -1.6755276554447270E-025
  0.68000000000000016         -1.0462758053748251E-025
  0.68300000000000005         -3.8962922070094455E-027
  0.68600000000000017          1.2957634936329457E-025
  0.68900000000000006          2.8382739200654593E-025
  0.69200000000000017          4.3993470190109546E-025
  0.69500000000000006          5.7304855197563884E-025
  0.69800000000000018          6.5464850369633781E-025
  0.70100000000000007          6.5600351740048643E-025
  0.70400000000000018          5.5262040697017787E-025
  0.70700000000000007          3.2926503497099278E-025
  0.71000000000000019         -1.5057668436340238E-026
  0.71300000000000008         -4.6292540243793611E-025
  0.71600000000000019         -9.7595847003386536E-025
  0.71900000000000008         -1.4947303236868454E-024
  0.72200000000000020         -1.9417888436754855E-024
  0.72500000000000009         -2.2281569840490905E-024
  0.72800000000000020         -2.2632957689215267E-024
  0.73100000000000009         -1.9679847474240052E-024
  0.73400000000000021         -1.2890530949025511E-024
  0.73700000000000010         -2.1433297288800963E-025
  0.74000000000000021          1.2142084469239988E-024
  0.74300000000000010          2.8914993551724365E-024
  0.74600000000000022          4.6468892986850365E-024
  0.74900000000000011          6.2502057540159666E-024
  0.75200000000000022          7.4277650199637747E-024
  0.75500000000000012          7.8887075839197505E-024
  0.75800000000000001          7.3607822037474212E-024
  0.76100000000000012          5.6331525804088622E-024
  0.76400000000000001          2.6023106593788290E-024
  0.76700000000000013         -1.6843141755977352E-024
  0.77000000000000002         -6.9934661284750972E-024
  0.77300000000000013         -1.2886848590110871E-023
  0.77600000000000002         -1.8724199911985625E-023
  0.77900000000000014         -2.3694106127247141E-023
  0.78200000000000003         -2.6875699052429849E-023
  0.78500000000000014         -2.7331263620636722E-023
  0.78800000000000003         -2.4225670717017473E-023
  0.79100000000000015         -1.6964194329469914E-023
  0.79400000000000004         -5.3356723956225256E-024
  0.79700000000000015          1.0356089649092574E-023
  0.80000000000000004          2.9192404759201303E-023
  0.80300000000000016          4.9592284858274041E-023
  0.80600000000000005          6.9337147160901409E-023
  0.80900000000000016          8.5683082526825271E-023
  0.81200000000000006          9.5569181317685351E-023
  0.81500000000000017          9.5920705447254134E-023
  0.81800000000000006          8.4033499212977537E-023
  0.82100000000000017          5.8012973153330930E-023
  0.82400000000000007          1.7227216458113547E-023
  0.82700000000000018         -3.7277842234751387E-023
  0.83000000000000007         -1.0246157286054764E-022
  0.83300000000000018         -1.7313420811450871E-022
  0.83600000000000008         -2.4202471469311160E-022
  0.83900000000000019         -3.0011911981577283E-022
  0.84200000000000008         -3.3729738142765911E-022
  0.84500000000000020         -3.4326802587848655E-022
  0.84800000000000009         -3.0876447589844339E-022
  0.85100000000000020         -2.2692672162598876E-022
  0.85400000000000009         -9.4751748973823222E-023
  0.85700000000000021          8.5539896748020175E-023
  0.86000000000000010          3.0540337594566803E-022
  0.86300000000000021          5.4932910813824483E-022
  0.86600000000000010          7.9485281376810899E-022
  0.86900000000000022          1.0133735747663573E-021
  0.87200000000000011          1.1718945258165422E-021
  0.87500000000000022          1.2357059941491508E-021
  0.87800000000000011          1.1719475038868767E-021
  0.88100000000000001          9.5385833695927251E-022
  0.88400000000000012          5.6540639632564054E-022
  0.88700000000000001          5.8691185178135943E-024
  0.89000000000000012         -7.0616042126277402E-022
  0.89300000000000002         -1.5299285380346739E-021
  0.89600000000000013         -2.4014414527953299E-021
  0.89900000000000002         -3.2346970761224442E-021
  0.90200000000000014         -3.9256705315118020E-021
  0.90500000000000003         -4.3592725282576401E-021
  0.90800000000000014         -4.4192656546678820E-021
  0.91100000000000003         -4.0007571926715621E-021
  0.91400000000000015         -3.0245686237937135E-021
  0.91700000000000004         -1.4523598031891735E-021
  0.92000000000000015          6.9891873074042997E-022
  0.92300000000000004          3.3449427799390046E-021
  0.92600000000000016          6.3262098572988417E-021
  0.92900000000000005          9.4063049764937323E-021
  0.93200000000000016          1.2277951144263086E-020
  0.93500000000000005          1.4578011789601551E-020
  0.93800000000000017          1.5912104009064083E-020
  0.94100000000000006          1.5888447738160015E-020
  0.94400000000000017          1.4159750838541286E-020
  0.94700000000000006          1.0470629713048826E-020
  0.95000000000000018          4.7069860007647958E-021
  0.95300000000000007         -3.0571999359434882E-021
  0.95600000000000018         -1.2521142106989780E-020
  0.95900000000000007         -2.3132434770534246E-020
  0.96200000000000019         -3.4081959684744702E-020
  0.96500000000000008         -4.4323653716999131E-020
  0.96800000000000019         -5.2623104607901535E-020
  0.97100000000000009         -5.7636821504140535E-020
  0.97400000000000020         -5.8021400390801659E-020
  0.97700000000000009         -5.2568879985629466E-020
  0.98000000000000020         -4.0360820042392032E-020
  0.98300000000000010         -2.0930333718729438E-020
  0.98600000000000021          5.5820554010271595E-021
  0.98900000000000010          3.8295476893274088E-020
  0.99200000000000021          7.5496992007471065E-020
  0.99500000000000011          1.1460975841379850E-019
  0.99800000000000022          1.5223767984451763E-019
   1.0010000000000001          1.8430027763517106E-019
   1.0040000000000002          2.0626557612094060E-019
   1.0070000000000001          2.1348095563628307E-019
   1.0100000000000000          2.0159348770234431E-019
   1.0130000000000001          1.6703959902677282E-019
   1.0160000000000000          1.0757408866517978E-019
   1.0190000000000001          2.2797267178012415E-020
   1.0220000000000000         -8.5369779253450551E-020
   1.0250000000000001         -2.1231801818687221E-019
   1.0280000000000000         -3.5055029495041730E-019
   1.0310000000000001         -4.8970552587520487E-019
   1.0340000000000000         -6.1685398847893655E-019
   1.0370000000000001         -7.1710027258173110E-019
   1.0400000000000000         -7.7450524690167285E-019
   1.0430000000000001         -7.7331748491849316E-019
   1.0460000000000000         -6.9946813143612052E-019
   1.0490000000000002         -5.4225514758081595E-019
   1.0520000000000000         -2.9610592965960371E-019
   1.0550000000000002          3.7724277402677930E-020
   1.0580000000000001          4.4968477122130642E-019
   1.0610000000000002          9.2087327636554588E-019
   1.0640000000000001          1.4225811746382045E-018
   1.0670000000000002          1.9166104964666725E-018
   1.0700000000000001          2.3565087074686249E-018
   1.0730000000000002          2.6898097444976166E-018
   1.0760000000000001          2.8613171606205164E-018
   1.0790000000000002          2.8173582552775558E-018
   1.0820000000000001          2.5108599640146628E-018
   1.0850000000000002          1.9069852644383369E-018
   1.0880000000000001          9.8896001648655791E-019
   1.0910000000000002         -2.3636583397427101E-019
   1.0940000000000001         -1.7337646307481079E-018
   1.0970000000000002         -3.4362598029449189E-018
