 -0.39999999999999997          0.0000000000000000     
 -0.39699999999999996          0.0000000000000000     
 -0.39399999999999996          0.0000000000000000     
 -0.39099999999999996          0.0000000000000000     
 -0.38799999999999996          0.0000000000000000     
 -0.38499999999999995          0.0000000000000000     
 -0.38199999999999995          0.0000000000000000     
 -0.37899999999999995          0.0000000000000000     
 -0.37599999999999995          0.0000000000000000     
 -0.37299999999999994          0.0000000000000000     
 -0.37000000000000000          0.0000000000000000     
 -0.36699999999999999          0.0000000000000000     
 -0.36399999999999999          0.0000000000000000     
 -0.36099999999999999          0.0000000000000000     
 -0.35799999999999998          0.0000000000000000     
 -0.35499999999999998          0.0000000000000000     
 -0.35199999999999998          0.0000000000000000     
 -0.34899999999999998          0.0000000000000000     
 -0.34599999999999997          0.0000000000000000     
 -0.34299999999999997          0.0000000000000000     
 -0.33999999999999997          0.0000000000000000     
 -0.33699999999999997          0.0000000000000000     
 -0.33399999999999996          0.0000000000000000     
 -0.33099999999999996          0.0000000000000000     
 -0.32799999999999996          0.0000000000000000     
 -0.32499999999999996          0.0000000000000000     
 -0.32199999999999995          0.0000000000000000     
 -0.31899999999999995          0.0000000000000000     
 -0.31599999999999995          0.0000000000000000     
 -0.31299999999999994          0.0000000000000000     
 -0.30999999999999994          0.0000000000000000     
 -0.30699999999999994          0.0000000000000000     
 -0.30399999999999994          0.0000000000000000     
 -0.30099999999999993          0.0000000000000000     
 -0.29799999999999993          0.0000000000000000     
 -0.29499999999999998          0.0000000000000000     
 -0.29199999999999998          0.0000000000000000     
 -0.28899999999999998          0.0000000000000000     
 -0.28599999999999998          0.0000000000000000     
 -0.28299999999999997          0.0000000000000000     
 -0.27999999999999997          0.0000000000000000     
 -0.27699999999999997          0.0000000000000000     
 -0.27399999999999997          0.0000000000000000     
 -0.27099999999999996          0.0000000000000000     
 -0.26799999999999996          0.0000000000000000     
 -0.26499999999999996          0.0000000000000000     
 -0.26199999999999996          0.0000000000000000     
 -0.25899999999999995          0.0000000000000000     
 -0.25599999999999995          0.0000000000000000     
 -0.25300000000000000          0.0000000000000000     
 -0.24999999999999997          0.0000000000000000     
 -0.24699999999999997          0.0000000000000000     
 -0.24399999999999997          0.0000000000000000     
 -0.24099999999999996          0.0000000000000000     
 -0.23799999999999996          0.0000000000000000     
 -0.23499999999999996          0.0000000000000000     
 -0.23199999999999996          0.0000000000000000     
 -0.22899999999999995          0.0000000000000000     
 -0.22599999999999995          0.0000000000000000     
 -0.22299999999999998          0.0000000000000000     
 -0.21999999999999997          0.0000000000000000     
 -0.21699999999999997          0.0000000000000000     
 -0.21399999999999997          0.0000000000000000     
 -0.21099999999999997          0.0000000000000000     
 -0.20799999999999996          0.0000000000000000     
 -0.20499999999999996          0.0000000000000000     
 -0.20199999999999996          0.0000000000000000     
 -0.19899999999999995          0.0000000000000000     
 -0.19599999999999995          0.0000000000000000     
 -0.19299999999999995          0.0000000000000000     
 -0.18999999999999997          0.0000000000000000     
 -0.18699999999999997          0.0000000000000000     
 -0.18399999999999997          0.0000000000000000     
 -0.18099999999999997          0.0000000000000000     
 -0.17799999999999996          0.0000000000000000     
 -0.17499999999999996          0.0000000000000000     
 -0.17199999999999996          0.0000000000000000     
 -0.16899999999999996          0.0000000000000000     
 -0.16599999999999995          0.0000000000000000     
 -0.16299999999999995          0.0000000000000000     
 -0.15999999999999998          0.0000000000000000     
 -0.15699999999999997          0.0000000000000000     
 -0.15399999999999997          0.0000000000000000     
 -0.15099999999999997          0.0000000000000000     
 -0.14799999999999996          0.0000000000000000     
 -0.14499999999999996          0.0000000000000000     
 -0.14199999999999996          0.0000000000000000     
 -0.13899999999999996          0.0000000000000000     
 -0.13599999999999995          0.0000000000000000     
 -0.13299999999999995          0.0000000000000000     
 -0.12999999999999995          0.0000000000000000     
 -0.12699999999999995          0.0000000000000000     
 -0.12399999999999994          0.0000000000000000     
 -0.12099999999999994          0.0000000000000000     
 -0.11799999999999994          0.0000000000000000     
 -0.11499999999999994          0.0000000000000000     
 -0.11199999999999993          0.0000000000000000     
 -0.10899999999999999          0.0000000000000000     
 -0.10599999999999998          0.0000000000000000     
 -0.10299999999999998          0.0000000000000000     
  -9.9999999999999978E-002     0.0000000000000000     
  -9.6999999999999975E-002     0.0000000000000000     
  -9.3999999999999972E-002     0.0000000000000000     
  -9.0999999999999970E-002     0.0000000000000000     
  -8.7999999999999967E-002     0.0000000000000000     
  -8.4999999999999964E-002     0.0000000000000000     
  -8.1999999999999962E-002     0.0000000000000000     
  -7.8999999999999959E-002     0.0000000000000000     
  -7.5999999999999956E-002     0.0000000000000000     
  -7.2999999999999954E-002     0.0000000000000000     
  -6.9999999999999951E-002     0.0000000000000000     
  -6.6999999999999948E-002     0.0000000000000000     
  -6.3999999999999946E-002     0.0000000000000000     
  -6.0999999999999943E-002     0.0000000000000000     
  -5.7999999999999940E-002     0.0000000000000000     
  -5.4999999999999938E-002     0.0000000000000000     
  -5.1999999999999935E-002     0.0000000000000000     
  -4.8999999999999932E-002     0.0000000000000000     
  -4.5999999999999985E-002     0.0000000000000000     
  -4.2999999999999983E-002     0.0000000000000000     
  -3.9999999999999980E-002     0.0000000000000000     
  -3.6999999999999977E-002     0.0000000000000000     
  -3.3999999999999975E-002     0.0000000000000000     
  -3.0999999999999972E-002     0.0000000000000000     
  -2.7999999999999969E-002     0.0000000000000000     
  -2.4999999999999967E-002     0.0000000000000000     
  -2.1999999999999964E-002     0.0000000000000000     
  -1.8999999999999961E-002     0.0000000000000000     
  -1.5999999999999959E-002     0.0000000000000000     
  -1.2999999999999956E-002     0.0000000000000000     
  -9.9999999999999534E-003     0.0000000000000000     
  -6.9999999999999507E-003     0.0000000000000000     
  -3.9999999999999480E-003     0.0000000000000000     
  -9.9999999999994538E-004     0.0000000000000000     
   2.0000000000000573E-003     0.0000000000000000     
   5.0000000000000600E-003     0.0000000000000000     
   8.0000000000000626E-003     0.0000000000000000     
   1.1000000000000065E-002     0.0000000000000000     
   1.4000000000000068E-002     0.0000000000000000     
   1.7000000000000015E-002     0.0000000000000000     
   2.0000000000000018E-002     0.0000000000000000     
   2.3000000000000020E-002     0.0000000000000000     
   2.6000000000000023E-002     0.0000000000000000     
   2.9000000000000026E-002     0.0000000000000000     
   3.2000000000000028E-002     0.0000000000000000     
   3.5000000000000031E-002     0.0000000000000000     
   3.8000000000000034E-002     0.0000000000000000     
   4.1000000000000036E-002     0.0000000000000000     
   4.4000000000000039E-002     0.0000000000000000     
   4.7000000000000042E-002     0.0000000000000000     
   5.0000000000000044E-002     0.0000000000000000     
   5.3000000000000047E-002     0.0000000000000000     
   5.6000000000000050E-002     0.0000000000000000     
   5.9000000000000052E-002     0.0000000000000000     
   6.2000000000000055E-002     0.0000000000000000     
   6.5000000000000058E-002     0.0000000000000000     
   6.8000000000000060E-002     0.0000000000000000     
   7.1000000000000063E-002     0.0000000000000000     
   7.4000000000000066E-002     0.0000000000000000     
   7.7000000000000068E-002     0.0000000000000000     
   8.0000000000000016E-002     0.0000000000000000     
   8.3000000000000018E-002     0.0000000000000000     
   8.6000000000000021E-002     0.0000000000000000     
   8.9000000000000024E-002     0.0000000000000000     
   9.2000000000000026E-002     0.0000000000000000     
   9.5000000000000029E-002     0.0000000000000000     
   9.8000000000000032E-002     0.0000000000000000     
  0.10100000000000003          0.0000000000000000     
  0.10400000000000004          0.0000000000000000     
  0.10700000000000004          0.0000000000000000     
  0.11000000000000004          0.0000000000000000     
  0.11300000000000004          0.0000000000000000     
  0.11600000000000005          0.0000000000000000     
  0.11900000000000005          0.0000000000000000     
  0.12200000000000005          0.0000000000000000     
  0.12500000000000006          0.0000000000000000     
  0.12800000000000006          0.0000000000000000     
  0.13100000000000006          0.0000000000000000     
  0.13400000000000006          0.0000000000000000     
  0.13700000000000007          0.0000000000000000     
  0.14000000000000007          0.0000000000000000     
  0.14300000000000007          0.0000000000000000     
  0.14600000000000007          0.0000000000000000     
  0.14900000000000008          0.0000000000000000     
  0.15200000000000008          0.0000000000000000     
  0.15500000000000008          0.0000000000000000     
  0.15800000000000008          0.0000000000000000     
  0.16100000000000009          0.0000000000000000     
  0.16400000000000009          0.0000000000000000     
  0.16700000000000009          0.0000000000000000     
  0.17000000000000010          0.0000000000000000     
  0.17300000000000010          0.0000000000000000     
  0.17600000000000010          8.7447017071934253E-042
  0.17899999999999999          4.3369556532631432E-042
  0.18200000000000000         -1.5351761647081991E-041
  0.18500000000000000         -2.6395790063267936E-041
  0.18800000000000000          4.0786005142054795E-041
  0.19100000000000000          3.9615149467747706E-040
  0.19400000000000001          3.3740744608337010E-040
  0.19700000000000001          7.6278144896160745E-041
  0.20000000000000001         -3.8917258677877313E-040
  0.20300000000000001         -1.0769131080731667E-039
  0.20600000000000002         -1.1912682742876499E-039
  0.20900000000000002          9.6620445802213188E-040
  0.21200000000000002          1.3041719938775556E-038
  0.21500000000000002          1.4623439224109736E-038
  0.21800000000000003          1.2946946877622544E-038
  0.22100000000000003         -9.1921011518418005E-040
  0.22400000000000003         -3.2645915271762705E-038
  0.22700000000000004         -6.2731122387648692E-038
  0.23000000000000004         -6.5697584109645366E-038
  0.23300000000000004         -1.2470291039312865E-038
  0.23600000000000004          1.0535081197433998E-037
  0.23900000000000005          2.4780139514662195E-037
  0.24200000000000005          3.1738362868111613E-037
  0.24500000000000005          1.8614731807927794E-037
  0.24800000000000005         -2.2754312073030570E-037
  0.25100000000000006         -8.5241088095382318E-037
  0.25400000000000006         -1.3851679899992214E-036
  0.25700000000000006         -1.3220263533745147E-036
  0.26000000000000006         -1.6753093866520440E-037
  0.26300000000000007          2.1875221878785749E-036
  0.26600000000000007          5.0569485723855994E-036
  0.26900000000000007          6.7847962394117866E-036
  0.27200000000000008          5.1140948749400504E-036
  0.27500000000000008         -1.7296273239713757E-036
  0.27800000000000008         -1.3419800958699340E-035
  0.28100000000000008         -2.6044024242370097E-035
  0.28400000000000009         -3.1830561787217337E-035
  0.28700000000000009         -2.1177055557103032E-035
  0.29000000000000009          1.2590145549144748E-035
  0.29300000000000009          6.6687785700990367E-035
  0.29600000000000010          1.2330803946545364E-034
  0.29900000000000010          1.4908523470746407E-034
  0.30200000000000010          1.0352519856649029E-034
  0.30499999999999999         -4.2196973583599845E-035
  0.30800000000000000         -2.7966609604128020E-034
  0.31100000000000000         -5.4073618037841638E-034
  0.31400000000000000         -6.9284935493095303E-034
  0.31700000000000000         -5.6687556667544300E-034
  0.32000000000000001         -2.4264531762146118E-035
  0.32300000000000001          9.4619962303686854E-034
  0.32600000000000001          2.1334824966210759E-033
  0.32900000000000001          3.0617261062788388E-033
  0.33200000000000002          3.0557224112231788E-033
  0.33500000000000002          1.4507740164657035E-033
  0.33800000000000002         -2.0655470863807845E-033
  0.34100000000000003         -7.0640798510007275E-033
  0.34400000000000003         -1.2095593026471589E-032
  0.34700000000000003         -1.4724287927421370E-032
  0.35000000000000003         -1.2048713271454251E-032
  0.35300000000000004         -1.7645109397430296E-033
  0.35600000000000004          1.6390944114769383E-032
  0.35900000000000004          3.9236125994856308E-032
  0.36200000000000004          5.9434412750624686E-032
  0.36500000000000005          6.6191710829845472E-032
  0.36800000000000005          4.7876979246303840E-032
  0.37100000000000005         -3.4511339679622471E-033
  0.37400000000000005         -8.6439676531260766E-032
  0.37700000000000006         -1.8549011438637190E-031
  0.38000000000000006         -2.6886734486480041E-031
  0.38300000000000006         -2.9233565233748597E-031
  0.38600000000000007         -2.0989686716574932E-031
  0.38900000000000007          8.7709171146525250E-033
  0.39200000000000007          3.5740207418120989E-031
  0.39500000000000007          7.7501904899239164E-031
  0.39800000000000008          1.1390184855174155E-030
  0.40100000000000008          1.2779859090752963E-030
  0.40400000000000008          1.0097112312692031E-030
  0.40700000000000008          2.0333744188482005E-031
  0.41000000000000009         -1.1447444824027891E-030
  0.41300000000000009         -2.8417739026069269E-030
  0.41600000000000009         -4.4643992631026109E-030
  0.41900000000000009         -5.3888795185369487E-030
  0.42200000000000010         -4.9069860815631543E-030
  0.42500000000000010         -2.4294174845779066E-030
  0.42800000000000010          2.2503879341709080E-030
  0.43100000000000011          8.6924029634565464E-030
  0.43400000000000000          1.5634513230842844E-029
  0.43700000000000000          2.1005414991210972E-029
  0.44000000000000000          2.2210040774581716E-029
  0.44300000000000000          1.6721508180213663E-029
  0.44600000000000001          2.9307213642026449E-030
  0.44900000000000001         -1.8898912063581784E-029
  0.45200000000000001         -4.5824587584260781E-029
  0.45500000000000002         -7.1882973005772299E-029
  0.45800000000000002         -8.8527185243577412E-029
  0.46100000000000002         -8.6052651424686294E-029
  0.46400000000000002         -5.6012653334515182E-029
  0.46700000000000003          5.6691653788113666E-030
  0.47000000000000003          9.5512537450330490E-029
  0.47300000000000003          2.0012404331704994E-028
  0.47600000000000003          2.9570626541765178E-028
  0.47900000000000004          3.5035562616277740E-028
  0.48200000000000004          3.2965324625958270E-028
  0.48500000000000004          2.0532769775306987E-028
  0.48800000000000004         -3.4178205545392746E-029
  0.49100000000000005         -3.7338984941314523E-028
  0.49400000000000005         -7.6266524043413108E-028
  0.49700000000000005         -1.1174436737710133E-027
  0.50000000000000000         -1.3266035298659224E-027
  0.50300000000000011         -1.2712571268827804E-027
  0.50600000000000001         -8.5307654012724682E-028
  0.50900000000000012         -2.8393298464031079E-029
  0.51200000000000001          1.1585686466321444E-027
  0.51500000000000012          2.5521739211979295E-027
  0.51800000000000002          3.8812136459575834E-027
  0.52100000000000013          4.7823166908915407E-027
  0.52400000000000002          4.8552436651053131E-027
  0.52700000000000014          3.7480014472350383E-027
  0.53000000000000003          1.2616912135961862E-027
  0.53300000000000014         -2.5433228531948765E-027
  0.53600000000000003         -7.2649979933864802E-027
  0.53900000000000015         -1.2128982056422427E-026
  0.54200000000000004         -1.6035086824258511E-026
  0.54500000000000015         -1.7696610432935250E-026
  0.54800000000000004         -1.5872065424754579E-026
  0.55100000000000016         -9.6673381599282235E-027
  0.55400000000000005          1.1367567703723416E-027
  0.55700000000000016          1.5797121675694881E-026
  0.56000000000000005          3.2438676422516381E-026
  0.56299999999999994          4.8078579784799889E-026
  0.56600000000000006          5.8901965800737276E-026
  0.56899999999999995          6.0810201618388423E-026
  0.57200000000000006          5.0210396519739679E-026
  0.57499999999999996          2.4953725283433740E-026
  0.57800000000000007         -1.4729353317304708E-026
  0.58099999999999996         -6.5493990977586581E-026
  0.58400000000000007         -1.2056039766356057E-025
  0.58699999999999997         -1.7000000638491409E-025
  0.59000000000000008         -2.0175339481784783E-025
  0.59299999999999997         -2.0339362199896904E-025
  0.59600000000000009         -1.6450330327246920E-025
  0.59899999999999998         -7.9374910653325299E-026
  0.60200000000000009          5.0401744085557927E-026
  0.60500000000000020          2.1399939913281006E-025
  0.60800000000000010          3.9062127866381277E-025
  0.61100000000000021          5.5045840114564719E-025
  0.61400000000000010          6.5763101401614044E-025
  0.61700000000000021          6.7511761577831117E-025
  0.62000000000000011          5.7130926414198626E-025
  0.62300000000000022          3.2743232153391356E-025
  0.62600000000000011         -5.5272798167404792E-026
  0.62900000000000000         -5.4997195981187240E-025
  0.63200000000000012         -1.1016791985436897E-024
  0.63500000000000001         -1.6289734102511783E-024
  0.63800000000000012         -2.0308160009257420E-024
  0.64100000000000001         -2.1986286821868233E-024
  0.64400000000000013         -2.0329291505680795E-024
  0.64700000000000002         -1.4628828707813231E-024
  0.65000000000000013         -4.6624688782940414E-025
  0.65300000000000002          9.1352249109181285E-025
  0.65600000000000014          2.5564988077551128E-024
  0.65900000000000003          4.2652278098050419E-024
  0.66200000000000014          5.7759591992976144E-024
  0.66500000000000004          6.7834672798458812E-024
  0.66800000000000015          6.9788658969485285E-024
  0.67100000000000004          6.0977565086300167E-024
  0.67400000000000015          3.9737534783056517E-024
  0.67700000000000005          5.9051660782594753E-025
  0.68000000000000016         -3.8760125499449668E-024
  0.68300000000000005         -9.0339052727827752E-024
  0.68600000000000017         -1.4278109809061418E-023
  0.68900000000000006         -1.8825962236400908E-023
  0.69200000000000017         -2.1788028915695796E-023
  0.69500000000000006         -2.2272529150034237E-023
  0.69800000000000018         -1.9516420296768881E-023
  0.70100000000000007         -1.3030859632620925E-023
  0.70400000000000018         -2.7437653633440557E-024
  0.70700000000000007          1.0881326652634523E-023
  0.71000000000000019          2.6772506701759729E-023
  0.71300000000000008          4.3244241602762232E-023
  0.71600000000000019          5.8076946090627824E-023
  0.71900000000000008          6.8690783651772738E-023
  0.72200000000000020          7.2413469571001862E-023
  0.72500000000000009          6.6828103554539071E-023
  0.72800000000000020          5.0174023918112393E-023
  0.73100000000000009          2.1759425730520200E-023
  0.73400000000000021         -1.7666821923809864E-023
  0.73700000000000010         -6.5643380673500142E-023
  0.74000000000000021         -1.1788621522649242E-022
  0.74300000000000010         -1.6839383683215243E-022
  0.74600000000000022         -2.0980765167720591E-022
  0.74900000000000011         -2.3404355381578989E-022
  0.75200000000000022         -2.3317854611204958E-022
  0.75500000000000012         -2.0054052534085572E-022
  0.75800000000000001         -1.3191005561911614E-022
  0.76100000000000012         -2.6706178648827159E-023
  0.76400000000000001          1.1100036848566086E-022
  0.76700000000000013          2.7181892717318503E-022
  0.77000000000000002          4.4088564355769342E-022
  0.77300000000000013          5.9837312908085545E-022
  0.77600000000000002          7.2075905272262851E-022
  0.77900000000000014          7.8288249478925593E-022
  0.78200000000000003          7.6071913091803711E-022
  0.78500000000000014          6.3470803378768034E-022
  0.78800000000000003          3.9334727842592486E-022
  0.79100000000000015          3.6676740088973671E-023
  0.79400000000000004         -4.2080283833736254E-022
  0.79700000000000015         -9.4827924268430531E-022
  0.80000000000000004         -1.4983190443452804E-021
  0.80300000000000016         -2.0085206082622254E-021
  0.80600000000000005         -2.4053887174230890E-021
  0.80900000000000016         -2.6105034112216997E-021
  0.81200000000000006         -2.5487925166322556E-021
  0.81500000000000017         -2.1584145497770615E-021
  0.81800000000000006         -1.4014662314450625E-021
  0.82100000000000017         -2.7444668412864525E-022
  0.82400000000000007          1.1828162634258830E-021
  0.82700000000000018          2.8811784775411259E-021
  0.83000000000000007          4.6805244102117050E-021
  0.83300000000000018          6.3936558006713123E-021
  0.83600000000000008          7.7965680705523991E-021
  0.83900000000000019          8.6454403927861003E-021
  0.84200000000000008          8.6999660719969252E-021
  0.84500000000000020          7.7518287986491862E-021
  0.84800000000000009          5.6563331507154921E-021
  0.85100000000000020          2.3643390678059716E-021
  0.85400000000000009         -2.0490107734392149E-021
  0.85700000000000021         -7.3627276502705107E-021
  0.86000000000000010         -1.3199606259042287E-020
  0.86300000000000021         -1.9030799342747986E-020
  0.86600000000000010         -2.4198246553148713E-020
  0.86900000000000022         -2.7956688488265322E-020
  0.87200000000000011         -2.9535044694484529E-020
  0.87500000000000022         -2.8214983306954617E-020
  0.87800000000000011         -2.3422267873622877E-020
  0.88100000000000001         -1.4823555334362006E-020
  0.88400000000000012         -2.4199277636328268E-021
  0.88700000000000001          1.3373894512180988E-020
  0.89000000000000012          3.1676147789197077E-020
  0.89300000000000002          5.1122206090000704E-020
  0.89600000000000013          6.9896191293013273E-020
  0.89900000000000002          8.5817895155373447E-020
  0.90200000000000014          9.6487758238197825E-020
  0.90500000000000003          9.9488525492557190E-020
  0.90800000000000014          9.2634759176712274E-020
  0.91100000000000003          7.4255544244000004E-020
  0.91400000000000015          4.3488608874876726E-020
  0.91700000000000004          5.5758561975464728E-022
  0.92000000000000015         -5.2998341169998070E-020
  0.92300000000000004         -1.1417833927391484E-019
  0.92600000000000016         -1.7848934431985297E-019
  0.92900000000000005         -2.4005967549792248E-019
  0.93200000000000016         -2.9191860676469013E-019
  0.93500000000000005         -3.2644898727461300E-019
  0.93800000000000017         -3.3600684235404550E-019
  0.94100000000000006         -3.1368288299595759E-019
  0.94400000000000017         -2.5416084262742042E-019
  0.94700000000000006         -1.5461007182534598E-019
  0.95000000000000018         -1.5532068491250115E-020
  0.95300000000000007          1.5853352498917934E-019
  0.95600000000000018          3.5854084640404375E-019
  0.95900000000000007          5.7080563190888563E-019
  0.96200000000000019          7.7729640244540202E-019
  0.96500000000000008          9.5640789942553986E-019
  0.96800000000000019          1.0842524696503308E-018
  0.97100000000000009          1.1364518166943083E-018
  0.97400000000000020          1.0903710644444812E-018
  0.97700000000000009          9.2767251395701211E-019
  0.98000000000000020          6.3702262448777918E-019
  0.98300000000000010          2.1672253205734174E-019
  0.98600000000000021         -3.2299313430601898E-019
  0.98900000000000010         -9.5828300572146924E-019
  0.99200000000000021         -1.6509315385479767E-018
  0.99500000000000011         -2.3487605204074143E-018
  0.99800000000000022         -2.9874115196799308E-018
   1.0010000000000001         -3.4936549296014001E-018
   1.0040000000000002         -3.7902109557992215E-018
   1.0070000000000001         -3.8019831100701104E-018
   1.0100000000000000         -3.4634229067563413E-018
   1.0130000000000001         -2.7265914126026936E-018
   1.0160000000000000         -1.5693485483983892E-018
   1.0190000000000001         -2.9354211690047510E-021
   1.0220000000000000          1.9218200698230582E-018
   1.0250000000000001          4.1105514649375064E-018
   1.0280000000000000          6.4244537107885076E-018
   1.0310000000000001          8.6831394571094365E-018
   1.0340000000000000          1.0671800337315876E-017
   1.0370000000000001          1.2152886035311365E-017
   1.0400000000000000          1.2882251110135354E-017
   1.0430000000000001          1.2629207826652410E-017
   1.0460000000000000          1.1199616187323319E-017
   1.0490000000000002          8.4605789992794485E-018
   1.0520000000000000          4.3649085948325226E-018
   1.0550000000000002         -1.0267136748444342E-018
   1.0580000000000001         -7.5282629136218369E-018
   1.0610000000000002         -1.4818175261614523E-017
   1.0640000000000001         -2.2438459778372632E-017
   1.0670000000000002         -2.9805393038883218E-017
   1.0700000000000001         -3.6232942194996421E-017
   1.0730000000000002         -4.0969727528468847E-017
   1.0760000000000001         -4.3248783984020035E-017
   1.0790000000000002         -4.2349021578165383E-017
   1.0820000000000001         -3.7665066816439014E-017
   1.0850000000000002         -2.8781534199386439E-017
   1.0880000000000001         -1.5546732793708961E-017
   1.0910000000000002          1.8609025920978638E-018
   1.0940000000000001          2.2879863225042479E-017
   1.0970000000000002          4.6533916176850042E-017
