 -0.39999999999999997          0.0000000000000000     
 -0.39699999999999996          0.0000000000000000     
 -0.39399999999999996          0.0000000000000000     
 -0.39099999999999996          0.0000000000000000     
 -0.38799999999999996          0.0000000000000000     
 -0.38499999999999995          0.0000000000000000     
 -0.38199999999999995          0.0000000000000000     
 -0.37899999999999995          0.0000000000000000     
 -0.37599999999999995          0.0000000000000000     
 -0.37299999999999994          0.0000000000000000     
 -0.37000000000000000          0.0000000000000000     
 -0.36699999999999999          0.0000000000000000     
 -0.36399999999999999          0.0000000000000000     
 -0.36099999999999999          0.0000000000000000     
 -0.35799999999999998          0.0000000000000000     
 -0.35499999999999998          0.0000000000000000     
 -0.35199999999999998          0.0000000000000000     
 -0.34899999999999998          0.0000000000000000     
 -0.34599999999999997          0.0000000000000000     
 -0.34299999999999997          0.0000000000000000     
 -0.33999999999999997          0.0000000000000000     
 -0.33699999999999997          0.0000000000000000     
 -0.33399999999999996          0.0000000000000000     
 -0.33099999999999996          0.0000000000000000     
 -0.32799999999999996          0.0000000000000000     
 -0.32499999999999996          0.0000000000000000     
 -0.32199999999999995          0.0000000000000000     
 -0.31899999999999995          0.0000000000000000     
 -0.31599999999999995          0.0000000000000000     
 -0.31299999999999994          0.0000000000000000     
 -0.30999999999999994          0.0000000000000000     
 -0.30699999999999994          0.0000000000000000     
 -0.30399999999999994          0.0000000000000000     
 -0.30099999999999993          0.0000000000000000     
 -0.29799999999999993          0.0000000000000000     
 -0.29499999999999998          0.0000000000000000     
 -0.29199999999999998          0.0000000000000000     
 -0.28899999999999998          0.0000000000000000     
 -0.28599999999999998          0.0000000000000000     
 -0.28299999999999997          0.0000000000000000     
 -0.27999999999999997          0.0000000000000000     
 -0.27699999999999997          0.0000000000000000     
 -0.27399999999999997          0.0000000000000000     
 -0.27099999999999996          0.0000000000000000     
 -0.26799999999999996          0.0000000000000000     
 -0.26499999999999996          0.0000000000000000     
 -0.26199999999999996          0.0000000000000000     
 -0.25899999999999995          0.0000000000000000     
 -0.25599999999999995          0.0000000000000000     
 -0.25300000000000000          0.0000000000000000     
 -0.24999999999999997          0.0000000000000000     
 -0.24699999999999997          0.0000000000000000     
 -0.24399999999999997          0.0000000000000000     
 -0.24099999999999996          0.0000000000000000     
 -0.23799999999999996          0.0000000000000000     
 -0.23499999999999996          0.0000000000000000     
 -0.23199999999999996          0.0000000000000000     
 -0.22899999999999995          0.0000000000000000     
 -0.22599999999999995          0.0000000000000000     
 -0.22299999999999998          0.0000000000000000     
 -0.21999999999999997          0.0000000000000000     
 -0.21699999999999997          0.0000000000000000     
 -0.21399999999999997          0.0000000000000000     
 -0.21099999999999997          0.0000000000000000     
 -0.20799999999999996          0.0000000000000000     
 -0.20499999999999996          0.0000000000000000     
 -0.20199999999999996          0.0000000000000000     
 -0.19899999999999995          0.0000000000000000     
 -0.19599999999999995          0.0000000000000000     
 -0.19299999999999995          0.0000000000000000     
 -0.18999999999999997          0.0000000000000000     
 -0.18699999999999997          0.0000000000000000     
 -0.18399999999999997          0.0000000000000000     
 -0.18099999999999997          0.0000000000000000     
 -0.17799999999999996          0.0000000000000000     
 -0.17499999999999996          0.0000000000000000     
 -0.17199999999999996          0.0000000000000000     
 -0.16899999999999996          0.0000000000000000     
 -0.16599999999999995          0.0000000000000000     
 -0.16299999999999995          0.0000000000000000     
 -0.15999999999999998          0.0000000000000000     
 -0.15699999999999997          0.0000000000000000     
 -0.15399999999999997          0.0000000000000000     
 -0.15099999999999997          0.0000000000000000     
 -0.14799999999999996          0.0000000000000000     
 -0.14499999999999996          0.0000000000000000     
 -0.14199999999999996          0.0000000000000000     
 -0.13899999999999996          0.0000000000000000     
 -0.13599999999999995          0.0000000000000000     
 -0.13299999999999995          0.0000000000000000     
 -0.12999999999999995          0.0000000000000000     
 -0.12699999999999995          0.0000000000000000     
 -0.12399999999999994          0.0000000000000000     
 -0.12099999999999994          0.0000000000000000     
 -0.11799999999999994          0.0000000000000000     
 -0.11499999999999994          0.0000000000000000     
 -0.11199999999999993          0.0000000000000000     
 -0.10899999999999999          0.0000000000000000     
 -0.10599999999999998          0.0000000000000000     
 -0.10299999999999998          0.0000000000000000     
  -9.9999999999999978E-002     0.0000000000000000     
  -9.6999999999999975E-002     0.0000000000000000     
  -9.3999999999999972E-002     0.0000000000000000     
  -9.0999999999999970E-002     0.0000000000000000     
  -8.7999999999999967E-002     0.0000000000000000     
  -8.4999999999999964E-002     0.0000000000000000     
  -8.1999999999999962E-002     0.0000000000000000     
  -7.8999999999999959E-002     0.0000000000000000     
  -7.5999999999999956E-002     0.0000000000000000     
  -7.2999999999999954E-002     0.0000000000000000     
  -6.9999999999999951E-002     0.0000000000000000     
  -6.6999999999999948E-002     0.0000000000000000     
  -6.3999999999999946E-002     0.0000000000000000     
  -6.0999999999999943E-002     0.0000000000000000     
  -5.7999999999999940E-002     0.0000000000000000     
  -5.4999999999999938E-002     0.0000000000000000     
  -5.1999999999999935E-002     0.0000000000000000     
  -4.8999999999999932E-002     0.0000000000000000     
  -4.5999999999999985E-002     0.0000000000000000     
  -4.2999999999999983E-002     0.0000000000000000     
  -3.9999999999999980E-002     0.0000000000000000     
  -3.6999999999999977E-002     0.0000000000000000     
  -3.3999999999999975E-002     0.0000000000000000     
  -3.0999999999999972E-002     0.0000000000000000     
  -2.7999999999999969E-002     0.0000000000000000     
  -2.4999999999999967E-002     0.0000000000000000     
  -2.1999999999999964E-002     0.0000000000000000     
  -1.8999999999999961E-002     0.0000000000000000     
  -1.5999999999999959E-002     0.0000000000000000     
  -1.2999999999999956E-002     0.0000000000000000     
  -9.9999999999999534E-003     0.0000000000000000     
  -6.9999999999999507E-003     0.0000000000000000     
  -3.9999999999999480E-003     0.0000000000000000     
  -9.9999999999994538E-004     0.0000000000000000     
   2.0000000000000573E-003     0.0000000000000000     
   5.0000000000000600E-003     0.0000000000000000     
   8.0000000000000626E-003     0.0000000000000000     
   1.1000000000000065E-002     0.0000000000000000     
   1.4000000000000068E-002     0.0000000000000000     
   1.7000000000000015E-002     0.0000000000000000     
   2.0000000000000018E-002     0.0000000000000000     
   2.3000000000000020E-002     0.0000000000000000     
   2.6000000000000023E-002     0.0000000000000000     
   2.9000000000000026E-002     0.0000000000000000     
   3.2000000000000028E-002     0.0000000000000000     
   3.5000000000000031E-002     0.0000000000000000     
   3.8000000000000034E-002     0.0000000000000000     
   4.1000000000000036E-002     0.0000000000000000     
   4.4000000000000039E-002     0.0000000000000000     
   4.7000000000000042E-002     0.0000000000000000     
   5.0000000000000044E-002     0.0000000000000000     
   5.3000000000000047E-002     0.0000000000000000     
   5.6000000000000050E-002     0.0000000000000000     
   5.9000000000000052E-002     0.0000000000000000     
   6.2000000000000055E-002     0.0000000000000000     
   6.5000000000000058E-002     0.0000000000000000     
   6.8000000000000060E-002     0.0000000000000000     
   7.1000000000000063E-002     0.0000000000000000     
   7.4000000000000066E-002     0.0000000000000000     
   7.7000000000000068E-002     0.0000000000000000     
   8.0000000000000016E-002     0.0000000000000000     
   8.3000000000000018E-002     0.0000000000000000     
   8.6000000000000021E-002     0.0000000000000000     
   8.9000000000000024E-002     0.0000000000000000     
   9.2000000000000026E-002     0.0000000000000000     
   9.5000000000000029E-002     0.0000000000000000     
   9.8000000000000032E-002     0.0000000000000000     
  0.10100000000000003          0.0000000000000000     
  0.10400000000000004          0.0000000000000000     
  0.10700000000000004          0.0000000000000000     
  0.11000000000000004          0.0000000000000000     
  0.11300000000000004          0.0000000000000000     
  0.11600000000000005          0.0000000000000000     
  0.11900000000000005          0.0000000000000000     
  0.12200000000000005          0.0000000000000000     
  0.12500000000000006          0.0000000000000000     
  0.12800000000000006          0.0000000000000000     
  0.13100000000000006          0.0000000000000000     
  0.13400000000000006          0.0000000000000000     
  0.13700000000000007          0.0000000000000000     
  0.14000000000000007          0.0000000000000000     
  0.14300000000000007          0.0000000000000000     
  0.14600000000000007          0.0000000000000000     
  0.14900000000000008          0.0000000000000000     
  0.15200000000000008          0.0000000000000000     
  0.15500000000000008          0.0000000000000000     
  0.15800000000000008          0.0000000000000000     
  0.16100000000000009          0.0000000000000000     
  0.16400000000000009          0.0000000000000000     
  0.16700000000000009          0.0000000000000000     
  0.17000000000000010          0.0000000000000000     
  0.17300000000000010          0.0000000000000000     
  0.17600000000000010          0.0000000000000000     
  0.17899999999999999          0.0000000000000000     
  0.18200000000000000          0.0000000000000000     
  0.18500000000000000          0.0000000000000000     
  0.18800000000000000          0.0000000000000000     
  0.19100000000000000          0.0000000000000000     
  0.19400000000000001          0.0000000000000000     
  0.19700000000000001          0.0000000000000000     
  0.20000000000000001          0.0000000000000000     
  0.20300000000000001          0.0000000000000000     
  0.20600000000000002          0.0000000000000000     
  0.20900000000000002          0.0000000000000000     
  0.21200000000000002          0.0000000000000000     
  0.21500000000000002          0.0000000000000000     
  0.21800000000000003          0.0000000000000000     
  0.22100000000000003          0.0000000000000000     
  0.22400000000000003          0.0000000000000000     
  0.22700000000000004          0.0000000000000000     
  0.23000000000000004          0.0000000000000000     
  0.23300000000000004          0.0000000000000000     
  0.23600000000000004          0.0000000000000000     
  0.23900000000000005          0.0000000000000000     
  0.24200000000000005          0.0000000000000000     
  0.24500000000000005          0.0000000000000000     
  0.24800000000000005          0.0000000000000000     
  0.25100000000000006          0.0000000000000000     
  0.25400000000000006          0.0000000000000000     
  0.25700000000000006          0.0000000000000000     
  0.26000000000000006          0.0000000000000000     
  0.26300000000000007          0.0000000000000000     
  0.26600000000000007          0.0000000000000000     
  0.26900000000000007          0.0000000000000000     
  0.27200000000000008          0.0000000000000000     
  0.27500000000000008          0.0000000000000000     
  0.27800000000000008          0.0000000000000000     
  0.28100000000000008          0.0000000000000000     
  0.28400000000000009          0.0000000000000000     
  0.28700000000000009          0.0000000000000000     
  0.29000000000000009          0.0000000000000000     
  0.29300000000000009          0.0000000000000000     
  0.29600000000000010          0.0000000000000000     
  0.29900000000000010          0.0000000000000000     
  0.30200000000000010          0.0000000000000000     
  0.30499999999999999          0.0000000000000000     
  0.30800000000000000          0.0000000000000000     
  0.31100000000000000          0.0000000000000000     
  0.31400000000000000          0.0000000000000000     
  0.31700000000000000          0.0000000000000000     
  0.32000000000000001          0.0000000000000000     
  0.32300000000000001          0.0000000000000000     
  0.32600000000000001          0.0000000000000000     
  0.32900000000000001          0.0000000000000000     
  0.33200000000000002          0.0000000000000000     
  0.33500000000000002          0.0000000000000000     
  0.33800000000000002          0.0000000000000000     
  0.34100000000000003          0.0000000000000000     
  0.34400000000000003          0.0000000000000000     
  0.34700000000000003          0.0000000000000000     
  0.35000000000000003          0.0000000000000000     
  0.35300000000000004          0.0000000000000000     
  0.35600000000000004          0.0000000000000000     
  0.35900000000000004          0.0000000000000000     
  0.36200000000000004          0.0000000000000000     
  0.36500000000000005          0.0000000000000000     
  0.36800000000000005          0.0000000000000000     
  0.37100000000000005          0.0000000000000000     
  0.37400000000000005          0.0000000000000000     
  0.37700000000000006          0.0000000000000000     
  0.38000000000000006          0.0000000000000000     
  0.38300000000000006          0.0000000000000000     
  0.38600000000000007          0.0000000000000000     
  0.38900000000000007          0.0000000000000000     
  0.39200000000000007          0.0000000000000000     
  0.39500000000000007          0.0000000000000000     
  0.39800000000000008          0.0000000000000000     
  0.40100000000000008          0.0000000000000000     
  0.40400000000000008          0.0000000000000000     
  0.40700000000000008          0.0000000000000000     
  0.41000000000000009          0.0000000000000000     
  0.41300000000000009          0.0000000000000000     
  0.41600000000000009          0.0000000000000000     
  0.41900000000000009          0.0000000000000000     
  0.42200000000000010          0.0000000000000000     
  0.42500000000000010          0.0000000000000000     
  0.42800000000000010          0.0000000000000000     
  0.43100000000000011          0.0000000000000000     
  0.43400000000000000          0.0000000000000000     
  0.43700000000000000          0.0000000000000000     
  0.44000000000000000          0.0000000000000000     
  0.44300000000000000          0.0000000000000000     
  0.44600000000000001          0.0000000000000000     
  0.44900000000000001          0.0000000000000000     
  0.45200000000000001          0.0000000000000000     
  0.45500000000000002          0.0000000000000000     
  0.45800000000000002          0.0000000000000000     
  0.46100000000000002          0.0000000000000000     
  0.46400000000000002          0.0000000000000000     
  0.46700000000000003          0.0000000000000000     
  0.47000000000000003          0.0000000000000000     
  0.47300000000000003          0.0000000000000000     
  0.47600000000000003          0.0000000000000000     
  0.47900000000000004          0.0000000000000000     
  0.48200000000000004          0.0000000000000000     
  0.48500000000000004          0.0000000000000000     
  0.48800000000000004          0.0000000000000000     
  0.49100000000000005          0.0000000000000000     
  0.49400000000000005          0.0000000000000000     
  0.49700000000000005          0.0000000000000000     
  0.50000000000000000          0.0000000000000000     
  0.50300000000000011          0.0000000000000000     
  0.50600000000000001          0.0000000000000000     
  0.50900000000000012          0.0000000000000000     
  0.51200000000000001          0.0000000000000000     
  0.51500000000000012          0.0000000000000000     
  0.51800000000000002          0.0000000000000000     
  0.52100000000000013          0.0000000000000000     
  0.52400000000000002          0.0000000000000000     
  0.52700000000000014          0.0000000000000000     
  0.53000000000000003          0.0000000000000000     
  0.53300000000000014          0.0000000000000000     
  0.53600000000000003          0.0000000000000000     
  0.53900000000000015          0.0000000000000000     
  0.54200000000000004          0.0000000000000000     
  0.54500000000000015          0.0000000000000000     
  0.54800000000000004          0.0000000000000000     
  0.55100000000000016          0.0000000000000000     
  0.55400000000000005          0.0000000000000000     
  0.55700000000000016          0.0000000000000000     
  0.56000000000000005          0.0000000000000000     
  0.56299999999999994          0.0000000000000000     
  0.56600000000000006          0.0000000000000000     
  0.56899999999999995          0.0000000000000000     
  0.57200000000000006          0.0000000000000000     
  0.57499999999999996          0.0000000000000000     
  0.57800000000000007          0.0000000000000000     
  0.58099999999999996          0.0000000000000000     
  0.58400000000000007          0.0000000000000000     
  0.58699999999999997          0.0000000000000000     
  0.59000000000000008          0.0000000000000000     
  0.59299999999999997          0.0000000000000000     
  0.59600000000000009          0.0000000000000000     
  0.59899999999999998          0.0000000000000000     
  0.60200000000000009          0.0000000000000000     
  0.60500000000000020          0.0000000000000000     
  0.60800000000000010          0.0000000000000000     
  0.61100000000000021          0.0000000000000000     
  0.61400000000000010          0.0000000000000000     
  0.61700000000000021          0.0000000000000000     
  0.62000000000000011          0.0000000000000000     
  0.62300000000000022          0.0000000000000000     
  0.62600000000000011          0.0000000000000000     
  0.62900000000000000          0.0000000000000000     
  0.63200000000000012          0.0000000000000000     
  0.63500000000000001          0.0000000000000000     
  0.63800000000000012          0.0000000000000000     
  0.64100000000000001         -2.4643293312895480E-042
  0.64400000000000013          6.9025965952494671E-042
  0.64700000000000002         -1.4236690709063733E-041
  0.65000000000000013          3.2188909304567557E-040
  0.65300000000000002          4.0678024022308314E-040
  0.65600000000000014          4.2677180117479913E-040
  0.65900000000000003          2.8950839776218392E-040
  0.66200000000000014          1.0069196085013285E-041
  0.66500000000000004         -3.0202488475644741E-040
  0.66800000000000015         -7.8471971899321706E-040
  0.67100000000000004         -1.3049064616268401E-039
  0.67400000000000015         -1.6636605744042233E-039
  0.67700000000000005         -1.8305637042493972E-039
  0.68000000000000016         -1.4012604812766900E-039
  0.68300000000000005          9.9396680601956546E-040
  0.68600000000000017          3.1859677250155325E-039
  0.68900000000000006          5.6143166214511703E-039
  0.69200000000000017          7.8462527040501764E-039
  0.69500000000000006          8.6157763422392011E-039
  0.69800000000000018          7.5229221602618690E-039
  0.70100000000000007          3.6300521880145650E-039
  0.70400000000000018         -1.8077324328139128E-038
  0.70700000000000007         -3.1283660874722255E-038
  0.71000000000000019         -4.3062390363605837E-038
  0.71300000000000008         -4.7234345099201322E-038
  0.71600000000000019         -3.6713209804427850E-038
  0.71900000000000008         -3.6293682910706959E-038
  0.72200000000000020          2.8600746157075989E-039
  0.72500000000000009          4.7376454801453107E-038
  0.72800000000000020          1.0064290097713976E-037
  0.73100000000000009          1.5301237956053387E-037
  0.73400000000000021          1.9230798053310233E-037
  0.73700000000000010          2.0218534046303694E-037
  0.74000000000000021          1.6055054619247281E-037
  0.74300000000000010          7.4917519889937320E-038
  0.74600000000000022         -7.6364601015426124E-038
  0.74900000000000011         -2.7768909344887253E-037
  0.75200000000000022         -5.0304028740973861E-037
  0.75500000000000012         -7.0892469750452098E-037
  0.75800000000000001         -8.3823091555676108E-037
  0.76100000000000012         -8.2758009849591255E-037
  0.76400000000000001         -6.1841970261200676E-037
  0.76700000000000013         -1.7340170337871980E-037
  0.77000000000000002          5.0526136557451865E-037
  0.77300000000000013          1.3609215819602488E-036
  0.77600000000000002          2.2735258650099045E-036
  0.77900000000000014          3.0589435224654639E-036
  0.78200000000000003          3.4853406783360225E-036
  0.78500000000000014          3.3057673013571697E-036
  0.78800000000000003          2.3078882227666182E-036
  0.79100000000000015          3.7401247710016243E-037
  0.79400000000000004         -2.4539010269181781E-036
  0.79700000000000015         -5.9184128597391512E-036
  0.80000000000000004         -9.5180594228162254E-036
  0.80300000000000016         -1.2520579828637448E-035
  0.80600000000000005         -1.4029774041762074E-035
  0.80900000000000016         -1.3114491279438532E-035
  0.81200000000000006         -8.9966375715095382E-036
  0.81500000000000017         -1.2774365777857586E-036
  0.81800000000000006          9.8315214138489929E-036
  0.82100000000000017          2.3316782521856001E-035
  0.82400000000000007          3.7267191222103109E-035
  0.82700000000000018          4.8932538396438969E-035
  0.83000000000000007          5.4978907003728997E-035
  0.83300000000000018          5.1959386545314880E-035
  0.83600000000000008          3.6984149221353152E-035
  0.83900000000000019          8.5254173237333257E-036
  0.84200000000000008         -3.2760262455644551E-035
  0.84500000000000020         -8.3354263798246125E-035
  0.84800000000000009         -1.3652849197331094E-034
  0.85100000000000020         -1.8251865064751422E-034
  0.85400000000000009         -2.0937054737468393E-034
  0.85700000000000021         -2.0452927859535972E-034
  0.86000000000000010         -1.5711458188083237E-034
  0.86300000000000021         -6.0677452069522659E-035
  0.86600000000000010          8.3932439563282945E-035
  0.86900000000000022          2.6611947669791451E-034
  0.87200000000000011          4.6412725023351124E-034
  0.87500000000000022          6.4529295660310706E-034
  0.87800000000000011          7.6849260376477151E-034
  0.88100000000000001          7.8905642243584222E-034
  0.88400000000000012          6.6605805785363513E-034
  0.88700000000000001          3.7139331102640059E-034
  0.89000000000000012         -1.0045313542709755E-034
  0.89300000000000002         -7.2357048096069985E-034
  0.89600000000000013         -1.4346651769845767E-033
  0.89900000000000002         -2.1320586361616094E-033
  0.90200000000000014         -2.6814453962253806E-033
  0.90500000000000003         -2.9296020416470065E-033
  0.90800000000000014         -2.7261044028541800E-033
  0.91100000000000003         -1.9517463188101625E-033
  0.91400000000000015         -5.5060939427467110E-034
  0.91700000000000004          1.4387239847420876E-033
  0.92000000000000015          3.8587913558080624E-033
  0.92300000000000004          6.4221740194591516E-033
  0.92600000000000016          8.7199585723503259E-033
  0.92900000000000005          1.0254433128700691E-032
  0.93200000000000016          1.0497852304939382E-032
  0.93500000000000005          8.9752602347377406E-033
  0.93800000000000017          5.3644269829933522E-033
  0.94100000000000006         -3.9916553672341796E-034
  0.94400000000000017         -8.0286128558070856E-033
  0.94700000000000006         -1.6822926072647863E-032
  0.95000000000000018         -2.5655478342923845E-032
  0.95300000000000007         -3.3031031521083391E-032
  0.95600000000000018         -3.7222956203973631E-032
  0.95900000000000007         -3.6491409591586984E-032
  0.96200000000000019         -2.9370739969772172E-032
  0.96500000000000008         -1.4999186789915636E-032
  0.96800000000000019          6.5514251435448090E-033
  0.97100000000000009          3.3999496403825247E-032
  0.97400000000000020          6.4692517922392021E-032
  0.97700000000000009          9.4621274984882016E-032
  0.98000000000000020          1.1865770848172870E-031
  0.98300000000000010          1.3104518538996693E-031
  0.98600000000000021          1.2613427785888654E-031
  0.98900000000000010          9.9319880139853398E-032
  0.99200000000000021          4.8088671336200017E-032
  0.99500000000000011         -2.6958318265055221E-032
  0.99800000000000022         -1.2127067874528595E-031
   1.0010000000000001         -2.2589128776817152E-031
   1.0040000000000002         -3.2755043104458733E-031
   1.0070000000000001         -4.0945696849346205E-031
   1.0100000000000000         -4.5285662875103077E-031
   1.0130000000000001         -4.3934450803053455E-031
   1.0160000000000000         -3.5378523607477570E-031
   1.0190000000000001         -1.8756510770394663E-031
   1.0220000000000000          5.8206052557202055E-032
   1.0250000000000001          3.7005119263408797E-031
   1.0280000000000000          7.2058197823608079E-031
   1.0310000000000001          1.0685939190971931E-030
   1.0340000000000000          1.3612254443739832E-030
   1.0370000000000001          1.5384505044236489E-030
   1.0400000000000000          1.5398701267352111E-030
   1.0430000000000001          1.3134547992255456E-030
   1.0460000000000000          8.2551869396976886E-031
   1.0490000000000002          7.0785166592922847E-032
   1.0520000000000000         -9.1883160569184984E-031
   1.0550000000000002         -2.0683317750161447E-030
   1.0580000000000001         -3.2582881021504481E-030
   1.0610000000000002         -4.3293916815813636E-030
   1.0640000000000001         -5.0939255639073970E-030
   1.0670000000000002         -5.3543276496252814E-030
   1.0700000000000001         -4.9282490780921899E-030
   1.0730000000000002         -3.6782878630578163E-030
   1.0760000000000001         -1.5436405191408831E-030
   1.0790000000000002          1.4302666234535618E-030
   1.0820000000000001          5.0687233259865119E-030
   1.0850000000000002          9.0560470508910279E-030
   1.0880000000000001          1.2940071586899769E-029
   1.0910000000000002          1.6156299699949335E-029
   1.0940000000000001          1.8073805597038335E-029
   1.0970000000000002          1.8062469106831182E-029
