 -0.39999999999999997          0.0000000000000000     
 -0.39699999999999996          0.0000000000000000     
 -0.39399999999999996          0.0000000000000000     
 -0.39099999999999996          0.0000000000000000     
 -0.38799999999999996          0.0000000000000000     
 -0.38499999999999995          0.0000000000000000     
 -0.38199999999999995          0.0000000000000000     
 -0.37899999999999995          0.0000000000000000     
 -0.37599999999999995          0.0000000000000000     
 -0.37299999999999994          0.0000000000000000     
 -0.37000000000000000          0.0000000000000000     
 -0.36699999999999999          0.0000000000000000     
 -0.36399999999999999          0.0000000000000000     
 -0.36099999999999999          0.0000000000000000     
 -0.35799999999999998          0.0000000000000000     
 -0.35499999999999998          0.0000000000000000     
 -0.35199999999999998          0.0000000000000000     
 -0.34899999999999998          0.0000000000000000     
 -0.34599999999999997          0.0000000000000000     
 -0.34299999999999997          0.0000000000000000     
 -0.33999999999999997          0.0000000000000000     
 -0.33699999999999997          0.0000000000000000     
 -0.33399999999999996          0.0000000000000000     
 -0.33099999999999996          0.0000000000000000     
 -0.32799999999999996          0.0000000000000000     
 -0.32499999999999996          0.0000000000000000     
 -0.32199999999999995          0.0000000000000000     
 -0.31899999999999995          0.0000000000000000     
 -0.31599999999999995          0.0000000000000000     
 -0.31299999999999994          0.0000000000000000     
 -0.30999999999999994          0.0000000000000000     
 -0.30699999999999994          0.0000000000000000     
 -0.30399999999999994          0.0000000000000000     
 -0.30099999999999993          0.0000000000000000     
 -0.29799999999999993          0.0000000000000000     
 -0.29499999999999998          0.0000000000000000     
 -0.29199999999999998          0.0000000000000000     
 -0.28899999999999998          0.0000000000000000     
 -0.28599999999999998          0.0000000000000000     
 -0.28299999999999997          0.0000000000000000     
 -0.27999999999999997          0.0000000000000000     
 -0.27699999999999997          0.0000000000000000     
 -0.27399999999999997          0.0000000000000000     
 -0.27099999999999996          0.0000000000000000     
 -0.26799999999999996          0.0000000000000000     
 -0.26499999999999996          0.0000000000000000     
 -0.26199999999999996          0.0000000000000000     
 -0.25899999999999995          0.0000000000000000     
 -0.25599999999999995          0.0000000000000000     
 -0.25300000000000000          0.0000000000000000     
 -0.24999999999999997          0.0000000000000000     
 -0.24699999999999997          0.0000000000000000     
 -0.24399999999999997          0.0000000000000000     
 -0.24099999999999996          0.0000000000000000     
 -0.23799999999999996          0.0000000000000000     
 -0.23499999999999996          0.0000000000000000     
 -0.23199999999999996          0.0000000000000000     
 -0.22899999999999995          0.0000000000000000     
 -0.22599999999999995          0.0000000000000000     
 -0.22299999999999998          0.0000000000000000     
 -0.21999999999999997          0.0000000000000000     
 -0.21699999999999997          0.0000000000000000     
 -0.21399999999999997          0.0000000000000000     
 -0.21099999999999997          0.0000000000000000     
 -0.20799999999999996          0.0000000000000000     
 -0.20499999999999996          0.0000000000000000     
 -0.20199999999999996          0.0000000000000000     
 -0.19899999999999995          0.0000000000000000     
 -0.19599999999999995          0.0000000000000000     
 -0.19299999999999995          0.0000000000000000     
 -0.18999999999999997          0.0000000000000000     
 -0.18699999999999997          0.0000000000000000     
 -0.18399999999999997          0.0000000000000000     
 -0.18099999999999997          0.0000000000000000     
 -0.17799999999999996          0.0000000000000000     
 -0.17499999999999996          0.0000000000000000     
 -0.17199999999999996          0.0000000000000000     
 -0.16899999999999996          0.0000000000000000     
 -0.16599999999999995          0.0000000000000000     
 -0.16299999999999995          0.0000000000000000     
 -0.15999999999999998          0.0000000000000000     
 -0.15699999999999997          0.0000000000000000     
 -0.15399999999999997          0.0000000000000000     
 -0.15099999999999997          0.0000000000000000     
 -0.14799999999999996          0.0000000000000000     
 -0.14499999999999996          0.0000000000000000     
 -0.14199999999999996          0.0000000000000000     
 -0.13899999999999996          0.0000000000000000     
 -0.13599999999999995          0.0000000000000000     
 -0.13299999999999995          0.0000000000000000     
 -0.12999999999999995          0.0000000000000000     
 -0.12699999999999995          0.0000000000000000     
 -0.12399999999999994          0.0000000000000000     
 -0.12099999999999994          0.0000000000000000     
 -0.11799999999999994          0.0000000000000000     
 -0.11499999999999994          0.0000000000000000     
 -0.11199999999999993          0.0000000000000000     
 -0.10899999999999999          0.0000000000000000     
 -0.10599999999999998          0.0000000000000000     
 -0.10299999999999998          0.0000000000000000     
  -9.9999999999999978E-002     0.0000000000000000     
  -9.6999999999999975E-002     0.0000000000000000     
  -9.3999999999999972E-002     0.0000000000000000     
  -9.0999999999999970E-002     0.0000000000000000     
  -8.7999999999999967E-002     0.0000000000000000     
  -8.4999999999999964E-002     0.0000000000000000     
  -8.1999999999999962E-002     0.0000000000000000     
  -7.8999999999999959E-002     0.0000000000000000     
  -7.5999999999999956E-002     0.0000000000000000     
  -7.2999999999999954E-002     0.0000000000000000     
  -6.9999999999999951E-002     0.0000000000000000     
  -6.6999999999999948E-002     0.0000000000000000     
  -6.3999999999999946E-002     0.0000000000000000     
  -6.0999999999999943E-002     0.0000000000000000     
  -5.7999999999999940E-002     0.0000000000000000     
  -5.4999999999999938E-002     0.0000000000000000     
  -5.1999999999999935E-002     0.0000000000000000     
  -4.8999999999999932E-002     0.0000000000000000     
  -4.5999999999999985E-002     0.0000000000000000     
  -4.2999999999999983E-002     0.0000000000000000     
  -3.9999999999999980E-002     0.0000000000000000     
  -3.6999999999999977E-002     0.0000000000000000     
  -3.3999999999999975E-002     0.0000000000000000     
  -3.0999999999999972E-002     0.0000000000000000     
  -2.7999999999999969E-002     0.0000000000000000     
  -2.4999999999999967E-002     0.0000000000000000     
  -2.1999999999999964E-002     0.0000000000000000     
  -1.8999999999999961E-002     0.0000000000000000     
  -1.5999999999999959E-002     0.0000000000000000     
  -1.2999999999999956E-002     0.0000000000000000     
  -9.9999999999999534E-003     0.0000000000000000     
  -6.9999999999999507E-003     0.0000000000000000     
  -3.9999999999999480E-003     0.0000000000000000     
  -9.9999999999994538E-004     0.0000000000000000     
   2.0000000000000573E-003     0.0000000000000000     
   5.0000000000000600E-003     0.0000000000000000     
   8.0000000000000626E-003     0.0000000000000000     
   1.1000000000000065E-002     0.0000000000000000     
   1.4000000000000068E-002     0.0000000000000000     
   1.7000000000000015E-002     0.0000000000000000     
   2.0000000000000018E-002     0.0000000000000000     
   2.3000000000000020E-002     0.0000000000000000     
   2.6000000000000023E-002     0.0000000000000000     
   2.9000000000000026E-002     0.0000000000000000     
   3.2000000000000028E-002     0.0000000000000000     
   3.5000000000000031E-002     0.0000000000000000     
   3.8000000000000034E-002     0.0000000000000000     
   4.1000000000000036E-002     0.0000000000000000     
   4.4000000000000039E-002     0.0000000000000000     
   4.7000000000000042E-002     0.0000000000000000     
   5.0000000000000044E-002     0.0000000000000000     
   5.3000000000000047E-002     0.0000000000000000     
   5.6000000000000050E-002     0.0000000000000000     
   5.9000000000000052E-002     0.0000000000000000     
   6.2000000000000055E-002     0.0000000000000000     
   6.5000000000000058E-002     0.0000000000000000     
   6.8000000000000060E-002     0.0000000000000000     
   7.1000000000000063E-002     0.0000000000000000     
   7.4000000000000066E-002     0.0000000000000000     
   7.7000000000000068E-002     0.0000000000000000     
   8.0000000000000016E-002     0.0000000000000000     
   8.3000000000000018E-002     0.0000000000000000     
   8.6000000000000021E-002     0.0000000000000000     
   8.9000000000000024E-002     0.0000000000000000     
   9.2000000000000026E-002     0.0000000000000000     
   9.5000000000000029E-002     0.0000000000000000     
   9.8000000000000032E-002     0.0000000000000000     
  0.10100000000000003          0.0000000000000000     
  0.10400000000000004          0.0000000000000000     
  0.10700000000000004          0.0000000000000000     
  0.11000000000000004          0.0000000000000000     
  0.11300000000000004          0.0000000000000000     
  0.11600000000000005          0.0000000000000000     
  0.11900000000000005          0.0000000000000000     
  0.12200000000000005          0.0000000000000000     
  0.12500000000000006          0.0000000000000000     
  0.12800000000000006          0.0000000000000000     
  0.13100000000000006          0.0000000000000000     
  0.13400000000000006          0.0000000000000000     
  0.13700000000000007          0.0000000000000000     
  0.14000000000000007          0.0000000000000000     
  0.14300000000000007          0.0000000000000000     
  0.14600000000000007          0.0000000000000000     
  0.14900000000000008          0.0000000000000000     
  0.15200000000000008          0.0000000000000000     
  0.15500000000000008          0.0000000000000000     
  0.15800000000000008          0.0000000000000000     
  0.16100000000000009          0.0000000000000000     
  0.16400000000000009          0.0000000000000000     
  0.16700000000000009          0.0000000000000000     
  0.17000000000000010          0.0000000000000000     
  0.17300000000000010          0.0000000000000000     
  0.17600000000000010          0.0000000000000000     
  0.17899999999999999          0.0000000000000000     
  0.18200000000000000          0.0000000000000000     
  0.18500000000000000          0.0000000000000000     
  0.18800000000000000          0.0000000000000000     
  0.19100000000000000          0.0000000000000000     
  0.19400000000000001          0.0000000000000000     
  0.19700000000000001          0.0000000000000000     
  0.20000000000000001          0.0000000000000000     
  0.20300000000000001          0.0000000000000000     
  0.20600000000000002          0.0000000000000000     
  0.20900000000000002          0.0000000000000000     
  0.21200000000000002          0.0000000000000000     
  0.21500000000000002          0.0000000000000000     
  0.21800000000000003          0.0000000000000000     
  0.22100000000000003          0.0000000000000000     
  0.22400000000000003          0.0000000000000000     
  0.22700000000000004          0.0000000000000000     
  0.23000000000000004          0.0000000000000000     
  0.23300000000000004          0.0000000000000000     
  0.23600000000000004          0.0000000000000000     
  0.23900000000000005          0.0000000000000000     
  0.24200000000000005          0.0000000000000000     
  0.24500000000000005          0.0000000000000000     
  0.24800000000000005          0.0000000000000000     
  0.25100000000000006          0.0000000000000000     
  0.25400000000000006          0.0000000000000000     
  0.25700000000000006          0.0000000000000000     
  0.26000000000000006          0.0000000000000000     
  0.26300000000000007          0.0000000000000000     
  0.26600000000000007          0.0000000000000000     
  0.26900000000000007          0.0000000000000000     
  0.27200000000000008          0.0000000000000000     
  0.27500000000000008          0.0000000000000000     
  0.27800000000000008          0.0000000000000000     
  0.28100000000000008          0.0000000000000000     
  0.28400000000000009          0.0000000000000000     
  0.28700000000000009          0.0000000000000000     
  0.29000000000000009          0.0000000000000000     
  0.29300000000000009          0.0000000000000000     
  0.29600000000000010          0.0000000000000000     
  0.29900000000000010          0.0000000000000000     
  0.30200000000000010          0.0000000000000000     
  0.30499999999999999          0.0000000000000000     
  0.30800000000000000          0.0000000000000000     
  0.31100000000000000          0.0000000000000000     
  0.31400000000000000          0.0000000000000000     
  0.31700000000000000          0.0000000000000000     
  0.32000000000000001          0.0000000000000000     
  0.32300000000000001          0.0000000000000000     
  0.32600000000000001          0.0000000000000000     
  0.32900000000000001          0.0000000000000000     
  0.33200000000000002          0.0000000000000000     
  0.33500000000000002          0.0000000000000000     
  0.33800000000000002          0.0000000000000000     
  0.34100000000000003          0.0000000000000000     
  0.34400000000000003          0.0000000000000000     
  0.34700000000000003          0.0000000000000000     
  0.35000000000000003         -1.4395910835030712E-041
  0.35300000000000004          1.7010185236357079E-041
  0.35600000000000004          3.5674524501901537E-041
  0.35900000000000004         -3.4904375085599395E-041
  0.36200000000000004         -8.3417199997135376E-041
  0.36500000000000005          1.7077273750395436E-040
  0.36800000000000005          2.1836908787226007E-039
  0.37100000000000005          2.6211968000758390E-039
  0.37400000000000005          1.9508690670746502E-039
  0.37700000000000006          9.6675946859140207E-042
  0.38000000000000006         -3.0512796621725150E-039
  0.38300000000000006         -8.2599359475818987E-039
  0.38600000000000007         -1.2763452022888464E-038
  0.38900000000000007         -1.2585395262879383E-038
  0.39200000000000007          9.5824281251715736E-039
  0.39500000000000007          3.6526376956325138E-038
  0.39800000000000008          6.6216371423995503E-038
  0.40100000000000008          8.5766627700514083E-038
  0.40400000000000008          8.0110087132513840E-038
  0.40700000000000008          3.8010294906328733E-038
  0.41000000000000009         -5.3564237900215171E-038
  0.41300000000000009         -1.8645487755023621E-037
  0.41600000000000009         -3.2964581385477836E-037
  0.41900000000000009         -4.2849769914954537E-037
  0.42200000000000010         -4.1396912763282639E-037
  0.42500000000000010         -2.1171757217910242E-037
  0.42800000000000010          2.1832308797926949E-037
  0.43100000000000011          8.4727013416652675E-037
  0.43400000000000000          1.5464175547493634E-036
  0.43700000000000000          2.0784877578950838E-036
  0.44000000000000000          2.1203623678529044E-036
  0.44300000000000000          1.3421992345548932E-036
  0.44600000000000001         -4.7196764633309117E-037
  0.44900000000000001         -3.2666195190817294E-036
  0.45200000000000001         -6.5766100420747099E-036
  0.45500000000000002         -9.4578696067165014E-036
  0.45800000000000002         -1.0554434414407693E-035
  0.46100000000000002         -8.3616461261494865E-036
  0.46400000000000002         -1.6969345941386685E-036
  0.46700000000000003          9.6830686480112235E-036
  0.47000000000000003          2.4454933064341979E-035
  0.47300000000000003          3.9302625095830807E-035
  0.47600000000000003          4.8961392667982756E-035
  0.47900000000000004          4.6974070164370806E-035
  0.48200000000000004          2.7275589065797967E-035
  0.48500000000000004         -1.3495586009868743E-035
  0.48800000000000004         -7.3351936168149962E-035
  0.49100000000000005         -1.4269563220815324E-034
  0.49400000000000005         -2.0340560209620475E-034
  0.49700000000000005         -2.3027842163791732E-034
  0.50000000000000000         -1.9555994516585321E-034
  0.50300000000000011         -7.6684785851036573E-035
  0.50600000000000001          1.3363554669674673E-034
  0.50900000000000012          4.1703354311763397E-034
  0.51200000000000001          7.2196470228121794E-034
  0.51500000000000012          9.6284742495721079E-034
  0.51800000000000002          1.0294413746013249E-033
  0.52100000000000013          8.0861076359177546E-034
  0.52400000000000002          2.1784737144550512E-034
  0.52700000000000014         -7.5398147036905762E-034
  0.53000000000000003         -2.0074863889339471E-033
  0.53300000000000014         -3.3077640372168035E-033
  0.53600000000000003         -4.2877609540738909E-033
  0.53900000000000015         -4.4924369221532959E-033
  0.54200000000000004         -3.4699639243690090E-033
  0.54500000000000015         -9.0539645466797152E-034
  0.54800000000000004          3.2220925452819094E-033
  0.55100000000000016          8.4927094209725060E-033
  0.55400000000000005          1.3956807842779249E-032
  0.55700000000000016          1.8154234090590774E-032
  0.56000000000000005          1.9285977868479578E-032
  0.56299999999999994          1.5558729579409723E-032
  0.56600000000000006          5.6843517951132041E-033
  0.56899999999999995         -1.0533926640079444E-032
  0.57200000000000006         -3.1649844797310922E-032
  0.57499999999999996         -5.4221727332831094E-032
  0.57800000000000007         -7.2839151223934373E-032
  0.58099999999999996         -8.0686930883925421E-032
  0.58400000000000007         -7.0726347602879767E-032
  0.58699999999999997         -3.7448061188022581E-032
  0.59000000000000008          2.1018995295563757E-032
  0.59299999999999997          1.0083704340478901E-031
  0.59600000000000009          1.9097583248462614E-031
  0.59899999999999998          2.7293813241010758E-031
  0.60200000000000009          3.2226012327777986E-031
  0.60500000000000020          3.1213913559235076E-031
  0.60800000000000010          2.1915125176745303E-031
  0.61100000000000021          3.0480352197635311E-032
  0.61400000000000010         -2.4850391911403290E-031
  0.61700000000000021         -5.8803798363343090E-031
  0.62000000000000011         -9.3117117863338556E-031
  0.62300000000000022         -1.1964086960569124E-030
  0.62600000000000011         -1.2872848031747059E-030
  0.62900000000000000         -1.1092841185990265E-030
  0.63200000000000012         -5.9296251205824888E-031
  0.63500000000000001          2.7977399304792875E-031
  0.63800000000000012          1.4511456981909701E-030
  0.64100000000000001          2.7710608040562151E-030
  0.64400000000000013          3.9955616139979589E-030
  0.64700000000000002          4.8061260740537066E-030
  0.65000000000000013          4.8531070184996026E-030
  0.65300000000000002          3.8225619763178812E-030
  0.65600000000000014          1.5200524592382528E-030
  0.65900000000000003         -2.0410032642264638E-030
  0.66200000000000014         -6.5641751713846385E-030
  0.66500000000000004         -1.1429283973419315E-029
  0.66800000000000015         -1.5707232838389554E-029
  0.67100000000000004         -1.8246884050008561E-029
  0.67400000000000015         -1.7840770168397817E-029
  0.67700000000000005         -1.3461976147570991E-029
  0.68000000000000016         -4.5468883107198728E-030
  0.68300000000000005          8.7198148731912684E-030
  0.68600000000000017          2.5176511558609487E-029
  0.68900000000000006          4.2578791611067347E-029
  0.69200000000000017          5.7680114137028897E-029
  0.69500000000000006          6.6544559819969471E-029
  0.69800000000000018          6.5106879050432776E-029
  0.70100000000000007          4.9948543181389427E-029
  0.70400000000000018          1.9204644794857836E-029
  0.70700000000000007         -2.6533176511860610E-029
  0.71000000000000019         -8.3499591943373673E-029
  0.71300000000000008         -1.4442372703876039E-028
  0.71600000000000019         -1.9877162533869877E-028
  0.71900000000000008         -2.3369923750809297E-028
  0.72200000000000020         -2.3575786319006399E-028
  0.72500000000000009         -1.9326543895037668E-028
  0.72800000000000020         -9.9101091864137116E-029
  0.73100000000000009          4.6467121960586387E-029
  0.73400000000000021          2.3344624002036867E-028
  0.73700000000000010          4.4084794765988205E-028
  0.74000000000000021          6.3705277574577152E-028
  0.74300000000000010          7.8222809915729443E-028
  0.74600000000000022          8.3299493775770702E-028
  0.74900000000000011          7.4915331153213152E-028
  0.75200000000000022          5.0189976943131658E-028
  0.75500000000000012          8.2494069250852316E-029
  0.75800000000000001         -4.8999720464622485E-028
  0.76100000000000012         -1.1635308858561671E-027
  0.76400000000000001         -1.8521185489709632E-027
  0.76700000000000013         -2.4404539844564062E-027
  0.77000000000000002         -2.7949185122089802E-027
  0.77300000000000013         -2.7809671408455147E-027
  0.77600000000000002         -2.2857012777748039E-027
  0.77900000000000014         -1.2433515439483895E-027
  0.78200000000000003          3.3981063491661695E-028
  0.78500000000000014          2.3653049466826852E-027
  0.78800000000000003          4.6317952290184648E-027
  0.79100000000000015          6.8381918933608375E-027
  0.79400000000000004          8.6038712200805814E-027
  0.79700000000000015          9.5073072031200289E-027
  0.80000000000000004          9.1421991881587910E-027
  0.80300000000000016          7.1865926410385693E-027
  0.80600000000000005          3.4779822515638246E-027
  0.80900000000000016         -1.9159774253215666E-027
  0.81200000000000006         -8.6431370715870166E-027
  0.81500000000000017         -1.6041669101426147E-026
  0.81800000000000006         -2.3155632235138854E-026
  0.82100000000000017         -2.8799469446541785E-026
  0.82400000000000007         -3.1674958776332874E-026
  0.82700000000000018         -3.0536328239159417E-026
  0.83000000000000007         -2.4392220787013652E-026
  0.83300000000000018         -1.2723546394034016E-026
  0.83600000000000008          4.3098355680539208E-027
  0.83900000000000019          2.5706985476480029E-026
  0.84200000000000008          4.9543391818666374E-026
  0.84500000000000020          7.3000112033033901E-026
  0.84800000000000009          9.2529321074628739E-026
  0.85100000000000020          1.0416740252523232E-025
  0.85400000000000009          1.0399006426163449E-025
  0.85700000000000021          8.8680759996610469E-026
  0.86000000000000010          5.6163520371295615E-026
  0.86300000000000021          6.2281364279664767E-027
  0.86600000000000010         -5.8940839583453697E-026
  0.86900000000000022         -1.3442618816490673E-025
  0.87200000000000011         -2.1252835348509043E-025
  0.87500000000000022         -2.8308243342437478E-025
  0.87800000000000011         -3.3419197888841717E-025
  0.88100000000000001         -3.5338881727155283E-025
  0.88400000000000012         -3.2917072930595587E-025
  0.88700000000000001         -2.5280575748425551E-025
  0.89000000000000012         -1.2024364212576431E-025
  0.89300000000000002          6.6106709484650530E-026
  0.89600000000000013          2.9598631869381691E-025
  0.89900000000000002          5.5056701717999398E-025
  0.90200000000000014          8.0266832061328121E-025
  0.90500000000000003          1.0181153456685612E-024
  0.90800000000000014          1.1583569865889072E-024
  0.91100000000000003          1.1843241500672282E-024
  0.91400000000000015          1.0613431601351727E-024
  0.91700000000000004          7.6476769073799274E-025
  0.92000000000000015          2.8576786764504571E-025
  0.92300000000000004         -3.6338858882323749E-025
  0.92600000000000016         -1.1453697049433296E-024
  0.92900000000000005         -1.9959561181830000E-024
  0.93200000000000016         -2.8251004818242405E-024
  0.93500000000000005         -3.5215303391387500E-024
  0.93800000000000017         -3.9611231191262519E-024
  0.94100000000000006         -4.0190365210131464E-024
  0.94400000000000017         -3.5850575021009079E-024
  0.94700000000000006         -2.5810171683872527E-024
  0.95000000000000018         -9.7876972772929004E-025
  0.95300000000000007          1.1834396339767195E-024
  0.95600000000000018          3.7884265399552898E-024
  0.95900000000000007          6.6339216925699666E-024
  0.96200000000000019          9.4352322556534849E-024
  0.96500000000000008          1.1838368238920139E-023
  0.96800000000000019          1.3444818191644858E-023
  0.97100000000000009          1.3847937997703573E-023
  0.97400000000000020          1.2679488959409692E-023
  0.97700000000000009          9.6632569089751363E-024
  0.98000000000000020          4.6713421484879923E-024
  0.98300000000000010         -2.2228614541518848E-024
  0.98600000000000021         -1.0701936003641429E-023
  0.98900000000000010         -2.0179552322673571E-023
  0.99200000000000021         -2.9800625721078969E-023
  0.99500000000000011         -3.8472446571296393E-023
  0.99800000000000022         -4.4931147416624046E-023
   1.0010000000000001         -4.7844437439954174E-023
   1.0040000000000002         -4.5947164819101730E-023
   1.0070000000000001         -3.8203522452085997E-023
   1.0100000000000000         -2.3982711873592939E-023
   1.0130000000000001         -3.2330717490222326E-024
   1.0160000000000000          2.3367556460514790E-023
   1.0190000000000001          5.4304570528994089E-023
   1.0220000000000000          8.7187801003530346E-023
   1.0250000000000001          1.1880066742292826E-022
   1.0280000000000000          1.4525222123954352E-022
   1.0310000000000001          1.6224214036849554E-022
   1.0340000000000000          1.6543578627537249E-022
   1.0370000000000001          1.5093218573492949E-022
   1.0400000000000000          1.1580293835793725E-022
   1.0430000000000001          5.8652991107124830E-023
   1.0460000000000000         -1.9848160208974704E-023
   1.0490000000000002         -1.1652850718888028E-022
   1.0520000000000000         -2.2543989121785896E-022
   1.0550000000000002         -3.3781762248582021E-022
   1.0580000000000001         -4.4233015473984208E-022
   1.0610000000000002         -5.2566448942861095E-022
   1.0640000000000001         -5.7346162988803399E-022
   1.0670000000000002         -5.7159226450468993E-022
   1.0700000000000001         -5.0770985253804576E-022
   1.0730000000000002         -3.7299241979859380E-022
   1.0760000000000001         -1.6393129672981861E-022
   1.0790000000000002          1.1600467180928494E-022
   1.0820000000000001          4.5503777053019627E-022
   1.0850000000000002          8.3229215725238218E-022
   1.0880000000000001          1.2177574674310263E-021
   1.0910000000000002          1.5731822882650660E-021
   1.0940000000000001          1.8540426816327288E-021
   1.0970000000000002          2.0125912890740901E-021
