 -0.39999999999999997          0.0000000000000000     
 -0.39699999999999996          0.0000000000000000     
 -0.39399999999999996          0.0000000000000000     
 -0.39099999999999996          0.0000000000000000     
 -0.38799999999999996          0.0000000000000000     
 -0.38499999999999995          0.0000000000000000     
 -0.38199999999999995          0.0000000000000000     
 -0.37899999999999995          0.0000000000000000     
 -0.37599999999999995          0.0000000000000000     
 -0.37299999999999994          0.0000000000000000     
 -0.37000000000000000          0.0000000000000000     
 -0.36699999999999999          0.0000000000000000     
 -0.36399999999999999          0.0000000000000000     
 -0.36099999999999999          0.0000000000000000     
 -0.35799999999999998          0.0000000000000000     
 -0.35499999999999998          0.0000000000000000     
 -0.35199999999999998          0.0000000000000000     
 -0.34899999999999998          0.0000000000000000     
 -0.34599999999999997          0.0000000000000000     
 -0.34299999999999997          0.0000000000000000     
 -0.33999999999999997          0.0000000000000000     
 -0.33699999999999997          0.0000000000000000     
 -0.33399999999999996          0.0000000000000000     
 -0.33099999999999996          0.0000000000000000     
 -0.32799999999999996          0.0000000000000000     
 -0.32499999999999996          0.0000000000000000     
 -0.32199999999999995          0.0000000000000000     
 -0.31899999999999995          0.0000000000000000     
 -0.31599999999999995          0.0000000000000000     
 -0.31299999999999994          3.4369097413468871E-040
 -0.30999999999999994         -2.0789404582535267E-038
 -0.30699999999999994          4.9385678655188216E-038
 -0.30399999999999994          6.5627576509833275E-038
 -0.30099999999999993         -7.2065267531037695E-037
 -0.29799999999999993          1.4277244713424219E-036
 -0.29499999999999998          2.9139249135438286E-036
 -0.29199999999999998         -1.9171427246063747E-035
 -0.28899999999999998          1.7058940090089097E-035
 -0.28599999999999998          1.1493985865532162E-034
 -0.28299999999999997         -3.2728604530506628E-034
 -0.27999999999999997         -2.7630659904268300E-034
 -0.27699999999999997          2.5782902165476741E-033
 -0.27399999999999997         -1.6769926682968955E-033
 -0.27099999999999996         -1.3629090189484214E-032
 -0.26799999999999996          2.4789930008369722E-032
 -0.26499999999999996          5.1306923019373727E-032
 -0.26199999999999996         -1.7969979829416445E-031
 -0.25899999999999995         -1.1717291844633201E-031
 -0.25599999999999995          9.8033709441901244E-031
 -0.25300000000000000         -9.2153441810433616E-032
 -0.24999999999999997         -4.4746488055237272E-030
 -0.24699999999999997          2.7841553729343747E-030
 -0.24399999999999997          1.7960726747204504E-029
 -0.24099999999999996         -1.8940463958013494E-029
 -0.23799999999999996         -6.5471786530820604E-029
 -0.23499999999999996          9.3375355077502997E-029
 -0.23199999999999996          2.2236406891835891E-028
 -0.22899999999999995         -3.8480874283851380E-028
 -0.22599999999999995         -7.1942462715644058E-028
 -0.22299999999999998          1.3909310127179507E-027
 -0.21999999999999997          2.2566982208281271E-027
 -0.21699999999999997         -4.4926614669259324E-027
 -0.21399999999999997         -6.9271215510556650E-027
 -0.21099999999999997          1.3005894010064286E-026
 -0.20799999999999996          2.0752349415487670E-026
 -0.20499999999999996         -3.3386022414856940E-026
 -0.20199999999999996         -5.9776264117551461E-026
 -0.19899999999999995          7.3703872261096512E-026
 -0.19599999999999995          1.6147502917845341E-025
 -0.19299999999999995         -1.2949791381458764E-025
 -0.18999999999999997         -3.9524315912311588E-025
 -0.18699999999999997          1.3601477248137119E-025
 -0.18399999999999997          8.3236066141125809E-025
 -0.18099999999999997          1.2801947958752364E-025
 -0.17799999999999996         -1.3553728514777216E-024
 -0.17499999999999996         -1.0929385147880821E-024
 -0.17199999999999996          1.1042992827624634E-024
 -0.16899999999999996          2.9391027492553845E-024
 -0.16599999999999995          2.3935142397050379E-024
 -0.16299999999999995         -3.4975480918576976E-024
 -0.15999999999999998         -1.2877592801972480E-023
 -0.15699999999999997         -6.4149730771986655E-024
 -0.15399999999999997          2.8711977431177964E-023
 -0.15099999999999997          4.5976130566666305E-023
 -0.14799999999999996         -2.2745512007998643E-023
 -0.14499999999999996         -1.2550847113682123E-022
 -0.14199999999999996         -8.2206833947166045E-023
 -0.13899999999999996          1.6845786310641835E-022
 -0.13599999999999995          3.6860768405087490E-022
 -0.13299999999999995          1.1485791325950130E-022
 -0.12999999999999995         -6.4608567201637545E-022
 -0.12699999999999995         -1.1426041556325406E-021
 -0.12399999999999994         -8.5659711733799772E-023
 -0.12099999999999994          2.5060617244368803E-021
 -0.11799999999999994          3.5341421899970665E-021
 -0.11499999999999994         -8.9213482070835520E-022
 -0.11199999999999993         -8.8718263898967330E-021
 -0.10899999999999999         -9.9816212422134436E-021
 -0.10599999999999998          5.2036535187356987E-021
 -0.10299999999999998          2.8364730676126905E-020
  -9.9999999999999978E-002     2.9122283324285172E-020
  -9.6999999999999975E-002    -1.8576149111973674E-020
  -9.3999999999999972E-002    -8.8851932549798760E-020
  -9.0999999999999970E-002    -8.9530925460092672E-020
  -8.7999999999999967E-002     5.7119167253079471E-020
  -8.4999999999999964E-002     2.7088713623263715E-019
  -8.1999999999999962E-002     2.7971798846416282E-019
  -7.8999999999999959E-002    -1.4389833295051761E-019
  -7.5999999999999956E-002    -7.8841233728985383E-019
  -7.2999999999999954E-002    -8.9466710590848354E-019
  -6.9999999999999951E-002     2.4476531505613315E-019
  -6.6999999999999948E-002     2.1878108785623217E-018
  -6.3999999999999946E-002     2.8718148403266361E-018
  -6.0999999999999943E-002     5.0380243380951593E-020
  -5.7999999999999940E-002    -5.6519955972723755E-018
  -5.4999999999999938E-002    -8.9383826014468039E-018
  -5.1999999999999935E-002    -2.9137394981624022E-018
  -4.8999999999999932E-002     1.2929201523717789E-017
  -4.5999999999999985E-002     2.6291547786301569E-017
  -4.2999999999999983E-002     1.7005442716457771E-017
  -3.9999999999999980E-002    -2.3468588337813848E-017
  -3.6999999999999977E-002    -7.0816217828227101E-017
  -3.3999999999999975E-002    -7.0489922655518518E-017
  -3.0999999999999972E-002     1.9524016710175170E-017
  -2.7999999999999969E-002     1.6613716453913079E-016
  -2.4999999999999967E-002     2.3882651843462121E-016
  -2.1999999999999964E-002     8.5671509258985721E-017
  -1.8999999999999961E-002    -3.0468218327304533E-016
  -1.5999999999999959E-002    -6.7541871575039050E-016
  -1.2999999999999956E-002    -5.7974769752901807E-016
  -9.9999999999999534E-003     2.6569923123064347E-016
  -6.9999999999999507E-003     1.5339886681814393E-015
  -3.9999999999999480E-003     2.1630967061279841E-015
  -9.9999999999994538E-004     9.2835187148850938E-016
   2.0000000000000573E-003    -2.3706836643509491E-015
   5.0000000000000600E-003    -5.8874940908130961E-015
   8.0000000000000626E-003    -6.0511957878831558E-015
   1.1000000000000065E-002     7.8340215616671865E-017
   1.4000000000000068E-002     1.1272682116901823E-014
   1.7000000000000015E-002     2.0084256555782032E-014
   2.0000000000000018E-002     1.5483672615394493E-014
   2.3000000000000020E-002    -8.8336382496402227E-015
   2.6000000000000023E-002    -4.4347333464249195E-014
   2.9000000000000026E-002    -6.4447696979347707E-014
   3.2000000000000028E-002    -3.6553757821003830E-014
   3.5000000000000031E-002     5.0389382586894014E-014
   3.8000000000000034E-002     1.5814815792105994E-013
   4.1000000000000036E-002     1.9813017541305154E-013
   4.4000000000000039E-002     7.8410738464281432E-014
   4.7000000000000042E-002    -2.1034524096537860E-013
   5.0000000000000044E-002    -5.2369089019132963E-013
   5.3000000000000047E-002    -5.8575592196794946E-013
   5.6000000000000050E-002    -1.5168135289483100E-013
   5.9000000000000052E-002     7.4279281097914920E-013
   6.2000000000000055E-002     1.6159454151626182E-012
   6.5000000000000058E-002     1.6686747149830901E-012
   6.8000000000000060E-002     2.8653843377404361E-013
   7.1000000000000063E-002    -2.2927867186341720E-012
   7.4000000000000066E-002    -4.6350082771917922E-012
   7.7000000000000068E-002    -4.5912887526204076E-012
   8.0000000000000016E-002    -6.8950096557657852E-013
   8.3000000000000018E-002     6.2200952101811423E-012
   8.6000000000000021E-002     1.2307911749746772E-011
   8.9000000000000024E-002     1.2194047864240826E-011
   9.2000000000000026E-002     2.4187494476570182E-012
   9.5000000000000029E-002    -1.4777530533839564E-011
   9.8000000000000032E-002    -3.0207918077759170E-011
  0.10100000000000003         -3.1240562111179525E-011
  0.10400000000000004         -9.6078569990003523E-012
  0.10700000000000004          3.0380528831677332E-011
  0.11000000000000004          6.9077571458783767E-011
  0.11300000000000004          7.8440710677059143E-011
  0.11600000000000005          3.7654256406836727E-011
  0.11900000000000005         -4.9938889207818902E-011
  0.12200000000000005         -1.4925219432944886E-010
  0.12500000000000006         -2.0295223853023130E-010
  0.12800000000000006         -1.5706414440484997E-010
  0.13100000000000006          8.3021569355395315E-012
  0.13400000000000006          2.5915605236068356E-010
  0.13700000000000007          5.1092957715358383E-010
  0.14000000000000007          6.5556408625241324E-010
  0.14300000000000007          6.0038952263652505E-010
  0.14600000000000007          3.0065550719642458E-010
  0.14900000000000008         -2.2839047548452161E-010
  0.15200000000000008         -9.2245431546507893E-010
  0.15500000000000008         -1.6934416799745908E-009
  0.15800000000000008         -2.4560122989085753E-009
  0.16100000000000009         -3.1468783498606429E-009
  0.16400000000000009         -3.7362072320006212E-009
  0.16700000000000009         -4.2350759893118270E-009
  0.17000000000000010         -4.7003808373099167E-009
  0.17300000000000010         -5.2327044808924187E-009
  0.17600000000000010         -5.9599135754989060E-009
  0.17899999999999999         -7.0053343141195193E-009
  0.18200000000000000         -8.4512739284380148E-009
  0.18500000000000000         -1.0317163437593363E-008
  0.18800000000000000         -1.2568369071176240E-008
  0.19100000000000000         -1.5156498586821918E-008
  0.19400000000000001         -1.8072233811892551E-008
  0.19700000000000001         -2.1381940702352113E-008
  0.20000000000000001         -2.5227281795977724E-008
  0.20300000000000001         -2.9789531243968719E-008
  0.20600000000000002         -3.5239286287750599E-008
  0.20900000000000002         -4.1702651977887339E-008
  0.21200000000000002         -4.9264781625068199E-008
  0.21500000000000002         -5.8006858807285025E-008
  0.21800000000000003         -6.8055305929742251E-008
  0.22100000000000003         -7.9618313597345014E-008
  0.22400000000000003         -9.2989512516519015E-008
  0.22700000000000004         -1.0851839516874373E-007
  0.23000000000000004         -1.2656572806459684E-007
  0.23300000000000004         -1.4746719278387890E-007
  0.23600000000000004         -1.7151879631238439E-007
  0.23900000000000005         -1.9900802619735798E-007
  0.24200000000000005         -2.3026882433301225E-007
  0.24500000000000005         -2.6574306600116245E-007
  0.24800000000000005         -3.0601454822336116E-007
  0.25100000000000006         -3.5179577331134489E-007
  0.25400000000000006         -4.0386204568091933E-007
  0.25700000000000006         -4.6297354538622142E-007
  0.26000000000000006         -5.2983443723536184E-007
  0.26300000000000007         -6.0511630502850859E-007
  0.26600000000000007         -6.8954011824354799E-007
  0.26900000000000007         -7.8397269241580262E-007
  0.27200000000000008         -8.8946994340314421E-007
  0.27500000000000008         -1.0072351875906440E-006
  0.27800000000000008         -1.1385178309664837E-006
  0.28100000000000008         -1.2845363674169372E-006
  0.28400000000000009         -1.4464420229760990E-006
  0.28700000000000009         -1.6253788738999027E-006
  0.29000000000000009         -1.8225915446089180E-006
  0.29300000000000009         -2.0394347439774051E-006
  0.29600000000000010         -2.2773602869576996E-006
  0.29900000000000010         -2.5378581642502044E-006
  0.30200000000000010         -2.8223200201561237E-006
  0.30499999999999999         -3.1321019599164978E-006
  0.30800000000000000         -3.4685091230928230E-006
  0.31100000000000000         -3.8328470729486274E-006
  0.31400000000000000         -4.2264190055792546E-006
  0.31700000000000000         -4.6504273328005317E-006
  0.32000000000000001         -5.1058990545958113E-006
  0.32300000000000001         -5.5936268546225814E-006
  0.32600000000000001         -6.1141955763713273E-006
  0.32900000000000001         -6.6679811782884864E-006
  0.33200000000000002         -7.2552285758473807E-006
  0.33500000000000002         -7.8760494825556538E-006
  0.33800000000000002         -8.5301703204296735E-006
  0.34100000000000003         -9.2168746573479134E-006
  0.34400000000000003         -9.9351169837732262E-006
  0.34700000000000003         -1.0683233847738714E-005
  0.35000000000000003         -1.1459309398960868E-005
  0.35300000000000004         -1.2260858485709420E-005
  0.35600000000000004         -1.3085077484053630E-005
  0.35900000000000004         -1.3928445589916142E-005
  0.36200000000000004         -1.4786921087844179E-005
  0.36500000000000005         -1.5655716616313279E-005
  0.36800000000000005         -1.6529672253955347E-005
  0.37100000000000005         -1.7402990520919467E-005
  0.37400000000000005         -1.8269308021240703E-005
  0.37700000000000006         -1.9121638076260762E-005
  0.38000000000000006         -1.9952330555636355E-005
  0.38300000000000006         -2.0753053423977338E-005
  0.38600000000000007         -2.1515024956696780E-005
  0.38900000000000007         -2.2229164021293052E-005
  0.39200000000000007         -2.2885727758356862E-005
  0.39500000000000007         -2.3474713651888950E-005
  0.39800000000000008         -2.3985974931307724E-005
  0.40100000000000008         -2.4409025177655733E-005
  0.40400000000000008         -2.4732797447943952E-005
  0.40700000000000008         -2.4946804032306413E-005
  0.41000000000000009         -2.5040500091722194E-005
  0.41300000000000009         -2.5003868823147657E-005
  0.41600000000000009         -2.4826410793031748E-005
  0.41900000000000009         -2.4498781007532191E-005
  0.42200000000000010         -2.4012263376497088E-005
  0.42500000000000010         -2.3358613608537213E-005
  0.42800000000000010         -2.2529849624741100E-005
  0.43100000000000011         -2.1520436100712478E-005
  0.43400000000000000         -2.0325438872406738E-005
  0.43700000000000000         -1.8940657465736176E-005
  0.44000000000000000         -1.7364051963169314E-005
  0.44300000000000000         -1.5595177855459648E-005
  0.44600000000000001         -1.3634621097344368E-005
  0.44900000000000001         -1.1485423485198138E-005
  0.45200000000000001         -9.1525071374882094E-006
  0.45500000000000002         -6.6422202924352166E-006
  0.45800000000000002         -3.9626157538169487E-006
  0.46100000000000002         -1.1238864331706163E-006
  0.46400000000000002          1.8613288588210211E-006
  0.46700000000000003          4.9785129397168121E-006
  0.47000000000000003          8.2113349451551210E-006
  0.47300000000000003          1.1542052602046842E-005
  0.47600000000000003          1.4950734486488947E-005
  0.47900000000000004          1.8416368422424910E-005
  0.48200000000000004          2.1916406988253596E-005
  0.48500000000000004          2.5426952186909568E-005
  0.48800000000000004          2.8922530700092191E-005
  0.49100000000000005          3.2377931175629746E-005
  0.49400000000000005          3.5766760890268330E-005
  0.49700000000000005          3.9063006114772603E-005
  0.50000000000000000          4.2239786899550233E-005
  0.50300000000000011          4.5270901716368252E-005
  0.50600000000000001          4.8130595487313182E-005
  0.50900000000000012          5.0793242275378700E-005
  0.51200000000000001          5.3235085516707472E-005
  0.51500000000000012          5.5434107865075011E-005
  0.51800000000000002          5.7369670454523177E-005
  0.52100000000000013          5.9022627186360300E-005
  0.52400000000000002          6.0376346639013316E-005
  0.52700000000000014          6.1416490655791397E-005
  0.53000000000000003          6.2130675816744258E-005
  0.53300000000000014          6.2509437983903520E-005
  0.53600000000000003          6.2547058302187713E-005
  0.53900000000000015          6.2240497012458086E-005
  0.54200000000000004          6.1589216586829495E-005
  0.54500000000000015          6.0595635263858226E-005
  0.54800000000000004          5.9265889431881115E-005
  0.55100000000000016          5.7608481881108795E-005
  0.55400000000000005          5.5634528011539042E-005
  0.55700000000000016          5.3358595160329914E-005
  0.56000000000000005          5.0798388202426744E-005
  0.56299999999999994          4.7973419291863636E-005
  0.56600000000000006          4.4904551257162736E-005
  0.56899999999999995          4.1616255878036711E-005
  0.57200000000000006          3.8134190491283654E-005
  0.57499999999999996          3.4485207621266309E-005
  0.57800000000000007          3.0697152056945737E-005
  0.58099999999999996          2.6800048080106486E-005
  0.58400000000000007          2.2823427067169556E-005
  0.58699999999999997          1.8797074186200670E-005
  0.59000000000000008          1.4750052243596208E-005
  0.59299999999999997          1.0712887428768904E-005
  0.59600000000000009          6.7133927748905605E-006
  0.59899999999999998          2.7799158979540744E-006
  0.60200000000000009         -1.0608508451830825E-006
  0.60500000000000020         -4.7831277604036848E-006
  0.60800000000000010         -8.3642358366488089E-006
  0.61100000000000021         -1.1782552950579750E-005
  0.61400000000000010         -1.5018048442390891E-005
  0.61700000000000021         -1.8053846772169911E-005
  0.62000000000000011         -2.0875001432947899E-005
  0.62300000000000022         -2.3468748706363451E-005
  0.62600000000000011         -2.5824980575687806E-005
  0.62900000000000000         -2.7936563098664351E-005
  0.63200000000000012         -2.9797831031878701E-005
  0.63500000000000001         -3.1405992452179725E-005
  0.63800000000000012         -3.2760506022706116E-005
  0.64100000000000001         -3.3863341325835940E-005
  0.64400000000000013         -3.4717914762789253E-005
  0.64700000000000002         -3.5330613582531154E-005
  0.65000000000000013         -3.5709029379137577E-005
  0.65300000000000002         -3.5862372958889327E-005
  0.65600000000000014         -3.5801981378484531E-005
  0.65900000000000003         -3.5539906280618226E-005
  0.66200000000000014         -3.5089156006164139E-005
  0.66500000000000004         -3.4463978131992528E-005
  0.66800000000000015         -3.3679722377864016E-005
  0.67100000000000004         -3.2751894464660988E-005
  0.67400000000000015         -3.1695645928228914E-005
  0.67700000000000005         -3.0527186496519346E-005
  0.68000000000000016         -2.9262634493448726E-005
  0.68300000000000005         -2.7917395446356017E-005
  0.68600000000000017         -2.6506587186260837E-005
  0.68900000000000006         -2.5045724428495430E-005
  0.69200000000000017         -2.3549457671096629E-005
  0.69500000000000006         -2.2030622277057557E-005
  0.69800000000000018         -2.0501778145526861E-005
  0.70100000000000007         -1.8975415378029482E-005
  0.70400000000000018         -1.7462385480248311E-005
  0.70700000000000007         -1.5972197136789873E-005
  0.71000000000000019         -1.4514551044266942E-005
  0.71300000000000008         -1.3098355987106488E-005
  0.71600000000000019         -1.1729965175869756E-005
  0.71900000000000008         -1.0414592104062145E-005
  0.72200000000000020         -9.1578083295947000E-006
  0.72500000000000009         -7.9638516295201543E-006
  0.72800000000000020         -6.8351456528868427E-006
  0.73100000000000009         -5.7743032471457265E-006
  0.73400000000000021         -4.7840871515496610E-006
  0.73700000000000010         -3.8649320995875898E-006
  0.74000000000000021         -3.0157042368671346E-006
  0.74300000000000010         -2.2360543279341940E-006
  0.74600000000000022         -1.5254895438644800E-006
  0.74900000000000011         -8.8177485270374209E-007
  0.75200000000000022         -3.0266552136498290E-007
  0.75500000000000012          2.1308712476274275E-007
  0.75800000000000001          6.6812503853365383E-007
  0.76100000000000012          1.0667994823158054E-006
  0.76400000000000001          1.4124462534370436E-006
  0.76700000000000013          1.7073877211209197E-006
  0.77000000000000002          1.9551549126191894E-006
  0.77300000000000013          2.1597284713733953E-006
  0.77600000000000002          2.3238432656378859E-006
  0.77900000000000014          2.4505714539688562E-006
  0.78200000000000003          2.5444482337407169E-006
  0.78500000000000014          2.6091508689591467E-006
  0.78800000000000003          2.6467274960513770E-006
  0.79100000000000015          2.6598595374759137E-006
  0.79400000000000004          2.6521483510936778E-006
  0.79700000000000015          2.6261896627477250E-006
  0.80000000000000004          2.5841024828345429E-006
  0.80300000000000016          2.5288954851624932E-006
  0.80600000000000005          2.4631652189581571E-006
  0.80900000000000016          2.3879754452446388E-006
  0.81200000000000006          2.3047159996520225E-006
  0.81500000000000017          2.2158265914322985E-006
  0.81800000000000006          2.1231029108857786E-006
  0.82100000000000017          2.0274517475287074E-006
  0.82400000000000007          1.9301896353090670E-006
  0.82700000000000018          1.8325177047467342E-006
  0.83000000000000007          1.7346555969171641E-006
  0.83300000000000018          1.6370768523124817E-006
  0.83600000000000008          1.5411497468112428E-006
  0.83900000000000019          1.4477643845886800E-006
  0.84200000000000008          1.3570108554567000E-006
  0.84500000000000020          1.2692395427313716E-006
  0.84800000000000009          1.1848025343160735E-006
  0.85100000000000020          1.1034474981606157E-006
  0.85400000000000009          1.0252125418488812E-006
  0.85700000000000021          9.5074658886753630E-007
  0.86000000000000010          8.8015723956027000E-007
  0.86300000000000021          8.1303361054012225E-007
  0.86600000000000010          7.4947541904849842E-007
  0.86900000000000022          6.8962110131412961E-007
  0.87200000000000011          6.3299128720466525E-007
  0.87500000000000022          5.7943967842442169E-007
  0.87800000000000011          5.2939141206699389E-007
  0.88100000000000001          4.8263332082609218E-007
  0.88400000000000012          4.3856435402230671E-007
  0.88700000000000001          3.9736846263237568E-007
  0.89000000000000012          3.5926173213154103E-007
  0.89300000000000002          3.2353605963521960E-007
  0.89600000000000013          2.8977430957479920E-007
  0.89900000000000002          2.5842646563669556E-007
  0.90200000000000014          2.2945998728918181E-007
  0.90500000000000003          2.0232514681466880E-007
  0.90800000000000014          1.7727415625418843E-007
  0.91100000000000003          1.5465980712703961E-007
  0.91400000000000015          1.3368540215601582E-007
  0.91700000000000004          1.1365734183250569E-007
  0.92000000000000015          9.5076097975036889E-008
  0.92300000000000004          7.8256587801469187E-008
  0.92600000000000016          6.2739463723948924E-008
  0.92900000000000005          4.8574768290960703E-008
  0.93200000000000016          3.6101475389166762E-008
  0.93500000000000005          2.4724537563185622E-008
  0.93800000000000017          1.3778287480197663E-008
  0.94100000000000006          3.7397180717626035E-009
  0.94400000000000017         -4.8843145329407427E-009
  0.94700000000000006         -1.2466627583045453E-008
  0.95000000000000018         -1.9289286155295282E-008
  0.95300000000000007         -2.5224762519850920E-008
  0.95600000000000018         -3.0520367859258524E-008
  0.95900000000000007         -3.5478136765739164E-008
  0.96200000000000019         -3.9772412225863055E-008
  0.96500000000000008         -4.3076600307491867E-008
  0.96800000000000019         -4.5671599115562540E-008
  0.97100000000000009         -4.7936103921913753E-008
  0.97400000000000020         -4.9980282819318736E-008
  0.97700000000000009         -5.1813606702810252E-008
  0.98000000000000020         -5.3262722890235548E-008
  0.98300000000000010         -5.4126434718631511E-008
  0.98600000000000021         -5.4598998646637503E-008
  0.98900000000000010         -5.4912281185528302E-008
  0.99200000000000021         -5.5084602087988762E-008
  0.99500000000000011         -5.5330488162002658E-008
  0.99800000000000022         -5.5788237823827298E-008
   1.0010000000000001         -5.5937528977532848E-008
   1.0040000000000002         -5.5512557390910122E-008
   1.0070000000000001         -5.5236957465049692E-008
   1.0100000000000000         -5.5433531968020306E-008
   1.0130000000000001         -5.5516773284644857E-008
   1.0160000000000000         -5.5560340310758712E-008
   1.0190000000000001         -5.6179029998942207E-008
   1.0220000000000000         -5.6818189736300638E-008
   1.0250000000000001         -5.6788134349129036E-008
   1.0280000000000000         -5.7020945496698185E-008
   1.0310000000000001         -5.8168293258555006E-008
   1.0340000000000000         -5.9175842125179395E-008
   1.0370000000000001         -5.9740426636126866E-008
   1.0400000000000000         -6.1019373433002331E-008
   1.0430000000000001         -6.2767194427619287E-008
   1.0460000000000000         -6.3715324618058232E-008
   1.0490000000000002         -6.4581881467620282E-008
   1.0520000000000000         -6.6544707510753244E-008
   1.0550000000000002         -6.8510301505928600E-008
   1.0580000000000001         -6.9609814693671530E-008
   1.0610000000000002         -7.1178436240430842E-008
   1.0640000000000001         -7.3494476824788342E-008
   1.0670000000000002         -7.4922834487465974E-008
   1.0700000000000001         -7.5667023223255812E-008
   1.0730000000000002         -7.7403013270093584E-008
   1.0760000000000001         -7.9477755697959837E-008
   1.0790000000000002         -8.0455963883352199E-008
   1.0820000000000001         -8.1359385173995352E-008
   1.0850000000000002         -8.3055373871811402E-008
   1.0880000000000001         -8.4045200456869091E-008
   1.0910000000000002         -8.3947016819478908E-008
   1.0940000000000001         -8.4551811337223382E-008
   1.0970000000000002         -8.5828503609335297E-008
