 -0.39999999999999997          0.0000000000000000     
 -0.39699999999999996          0.0000000000000000     
 -0.39399999999999996          0.0000000000000000     
 -0.39099999999999996          0.0000000000000000     
 -0.38799999999999996          0.0000000000000000     
 -0.38499999999999995          0.0000000000000000     
 -0.38199999999999995          0.0000000000000000     
 -0.37899999999999995          0.0000000000000000     
 -0.37599999999999995          0.0000000000000000     
 -0.37299999999999994          0.0000000000000000     
 -0.37000000000000000          0.0000000000000000     
 -0.36699999999999999          0.0000000000000000     
 -0.36399999999999999          0.0000000000000000     
 -0.36099999999999999          0.0000000000000000     
 -0.35799999999999998          0.0000000000000000     
 -0.35499999999999998          0.0000000000000000     
 -0.35199999999999998          0.0000000000000000     
 -0.34899999999999998          0.0000000000000000     
 -0.34599999999999997          0.0000000000000000     
 -0.34299999999999997          0.0000000000000000     
 -0.33999999999999997          0.0000000000000000     
 -0.33699999999999997          0.0000000000000000     
 -0.33399999999999996          0.0000000000000000     
 -0.33099999999999996          0.0000000000000000     
 -0.32799999999999996          0.0000000000000000     
 -0.32499999999999996          0.0000000000000000     
 -0.32199999999999995          0.0000000000000000     
 -0.31899999999999995          0.0000000000000000     
 -0.31599999999999995          0.0000000000000000     
 -0.31299999999999994          0.0000000000000000     
 -0.30999999999999994          0.0000000000000000     
 -0.30699999999999994          0.0000000000000000     
 -0.30399999999999994          0.0000000000000000     
 -0.30099999999999993          0.0000000000000000     
 -0.29799999999999993          0.0000000000000000     
 -0.29499999999999998          0.0000000000000000     
 -0.29199999999999998          0.0000000000000000     
 -0.28899999999999998          0.0000000000000000     
 -0.28599999999999998          0.0000000000000000     
 -0.28299999999999997          0.0000000000000000     
 -0.27999999999999997          0.0000000000000000     
 -0.27699999999999997          0.0000000000000000     
 -0.27399999999999997          0.0000000000000000     
 -0.27099999999999996          0.0000000000000000     
 -0.26799999999999996          0.0000000000000000     
 -0.26499999999999996          0.0000000000000000     
 -0.26199999999999996          0.0000000000000000     
 -0.25899999999999995          0.0000000000000000     
 -0.25599999999999995          0.0000000000000000     
 -0.25300000000000000          0.0000000000000000     
 -0.24999999999999997          0.0000000000000000     
 -0.24699999999999997          0.0000000000000000     
 -0.24399999999999997          0.0000000000000000     
 -0.24099999999999996          0.0000000000000000     
 -0.23799999999999996          0.0000000000000000     
 -0.23499999999999996          0.0000000000000000     
 -0.23199999999999996          0.0000000000000000     
 -0.22899999999999995          0.0000000000000000     
 -0.22599999999999995          0.0000000000000000     
 -0.22299999999999998          0.0000000000000000     
 -0.21999999999999997          0.0000000000000000     
 -0.21699999999999997          0.0000000000000000     
 -0.21399999999999997          0.0000000000000000     
 -0.21099999999999997          0.0000000000000000     
 -0.20799999999999996          0.0000000000000000     
 -0.20499999999999996          0.0000000000000000     
 -0.20199999999999996          0.0000000000000000     
 -0.19899999999999995          0.0000000000000000     
 -0.19599999999999995          0.0000000000000000     
 -0.19299999999999995          0.0000000000000000     
 -0.18999999999999997          0.0000000000000000     
 -0.18699999999999997          0.0000000000000000     
 -0.18399999999999997          0.0000000000000000     
 -0.18099999999999997          0.0000000000000000     
 -0.17799999999999996          0.0000000000000000     
 -0.17499999999999996          0.0000000000000000     
 -0.17199999999999996          0.0000000000000000     
 -0.16899999999999996          0.0000000000000000     
 -0.16599999999999995          0.0000000000000000     
 -0.16299999999999995          0.0000000000000000     
 -0.15999999999999998          0.0000000000000000     
 -0.15699999999999997          0.0000000000000000     
 -0.15399999999999997          0.0000000000000000     
 -0.15099999999999997          0.0000000000000000     
 -0.14799999999999996          0.0000000000000000     
 -0.14499999999999996          0.0000000000000000     
 -0.14199999999999996          0.0000000000000000     
 -0.13899999999999996          0.0000000000000000     
 -0.13599999999999995          0.0000000000000000     
 -0.13299999999999995          0.0000000000000000     
 -0.12999999999999995          0.0000000000000000     
 -0.12699999999999995          0.0000000000000000     
 -0.12399999999999994          0.0000000000000000     
 -0.12099999999999994          0.0000000000000000     
 -0.11799999999999994          0.0000000000000000     
 -0.11499999999999994          0.0000000000000000     
 -0.11199999999999993          0.0000000000000000     
 -0.10899999999999999          0.0000000000000000     
 -0.10599999999999998          0.0000000000000000     
 -0.10299999999999998          0.0000000000000000     
  -9.9999999999999978E-002     0.0000000000000000     
  -9.6999999999999975E-002     0.0000000000000000     
  -9.3999999999999972E-002     0.0000000000000000     
  -9.0999999999999970E-002     0.0000000000000000     
  -8.7999999999999967E-002     0.0000000000000000     
  -8.4999999999999964E-002     0.0000000000000000     
  -8.1999999999999962E-002     0.0000000000000000     
  -7.8999999999999959E-002     0.0000000000000000     
  -7.5999999999999956E-002     0.0000000000000000     
  -7.2999999999999954E-002     0.0000000000000000     
  -6.9999999999999951E-002     0.0000000000000000     
  -6.6999999999999948E-002     0.0000000000000000     
  -6.3999999999999946E-002     0.0000000000000000     
  -6.0999999999999943E-002     0.0000000000000000     
  -5.7999999999999940E-002     0.0000000000000000     
  -5.4999999999999938E-002     0.0000000000000000     
  -5.1999999999999935E-002     0.0000000000000000     
  -4.8999999999999932E-002     0.0000000000000000     
  -4.5999999999999985E-002     0.0000000000000000     
  -4.2999999999999983E-002     0.0000000000000000     
  -3.9999999999999980E-002     0.0000000000000000     
  -3.6999999999999977E-002     0.0000000000000000     
  -3.3999999999999975E-002     0.0000000000000000     
  -3.0999999999999972E-002     0.0000000000000000     
  -2.7999999999999969E-002     0.0000000000000000     
  -2.4999999999999967E-002     0.0000000000000000     
  -2.1999999999999964E-002     0.0000000000000000     
  -1.8999999999999961E-002     0.0000000000000000     
  -1.5999999999999959E-002     0.0000000000000000     
  -1.2999999999999956E-002     0.0000000000000000     
  -9.9999999999999534E-003     0.0000000000000000     
  -6.9999999999999507E-003     0.0000000000000000     
  -3.9999999999999480E-003     0.0000000000000000     
  -9.9999999999994538E-004     0.0000000000000000     
   2.0000000000000573E-003     0.0000000000000000     
   5.0000000000000600E-003     0.0000000000000000     
   8.0000000000000626E-003     0.0000000000000000     
   1.1000000000000065E-002     0.0000000000000000     
   1.4000000000000068E-002     0.0000000000000000     
   1.7000000000000015E-002     0.0000000000000000     
   2.0000000000000018E-002     0.0000000000000000     
   2.3000000000000020E-002     0.0000000000000000     
   2.6000000000000023E-002     0.0000000000000000     
   2.9000000000000026E-002     0.0000000000000000     
   3.2000000000000028E-002     0.0000000000000000     
   3.5000000000000031E-002     0.0000000000000000     
   3.8000000000000034E-002     0.0000000000000000     
   4.1000000000000036E-002     0.0000000000000000     
   4.4000000000000039E-002     0.0000000000000000     
   4.7000000000000042E-002     0.0000000000000000     
   5.0000000000000044E-002     0.0000000000000000     
   5.3000000000000047E-002     0.0000000000000000     
   5.6000000000000050E-002     0.0000000000000000     
   5.9000000000000052E-002     0.0000000000000000     
   6.2000000000000055E-002     0.0000000000000000     
   6.5000000000000058E-002     0.0000000000000000     
   6.8000000000000060E-002     0.0000000000000000     
   7.1000000000000063E-002     0.0000000000000000     
   7.4000000000000066E-002     0.0000000000000000     
   7.7000000000000068E-002     0.0000000000000000     
   8.0000000000000016E-002     0.0000000000000000     
   8.3000000000000018E-002     0.0000000000000000     
   8.6000000000000021E-002     0.0000000000000000     
   8.9000000000000024E-002     0.0000000000000000     
   9.2000000000000026E-002     0.0000000000000000     
   9.5000000000000029E-002     0.0000000000000000     
   9.8000000000000032E-002     0.0000000000000000     
  0.10100000000000003          0.0000000000000000     
  0.10400000000000004          0.0000000000000000     
  0.10700000000000004          0.0000000000000000     
  0.11000000000000004          0.0000000000000000     
  0.11300000000000004          0.0000000000000000     
  0.11600000000000005          0.0000000000000000     
  0.11900000000000005          0.0000000000000000     
  0.12200000000000005          0.0000000000000000     
  0.12500000000000006          0.0000000000000000     
  0.12800000000000006          0.0000000000000000     
  0.13100000000000006          0.0000000000000000     
  0.13400000000000006          0.0000000000000000     
  0.13700000000000007          0.0000000000000000     
  0.14000000000000007          0.0000000000000000     
  0.14300000000000007          0.0000000000000000     
  0.14600000000000007          0.0000000000000000     
  0.14900000000000008          0.0000000000000000     
  0.15200000000000008          0.0000000000000000     
  0.15500000000000008          0.0000000000000000     
  0.15800000000000008          0.0000000000000000     
  0.16100000000000009          0.0000000000000000     
  0.16400000000000009          0.0000000000000000     
  0.16700000000000009          0.0000000000000000     
  0.17000000000000010          0.0000000000000000     
  0.17300000000000010          0.0000000000000000     
  0.17600000000000010          0.0000000000000000     
  0.17899999999999999          0.0000000000000000     
  0.18200000000000000          0.0000000000000000     
  0.18500000000000000          0.0000000000000000     
  0.18800000000000000          0.0000000000000000     
  0.19100000000000000          0.0000000000000000     
  0.19400000000000001          0.0000000000000000     
  0.19700000000000001          0.0000000000000000     
  0.20000000000000001          0.0000000000000000     
  0.20300000000000001          0.0000000000000000     
  0.20600000000000002          0.0000000000000000     
  0.20900000000000002          0.0000000000000000     
  0.21200000000000002          0.0000000000000000     
  0.21500000000000002          0.0000000000000000     
  0.21800000000000003          0.0000000000000000     
  0.22100000000000003          0.0000000000000000     
  0.22400000000000003          0.0000000000000000     
  0.22700000000000004          0.0000000000000000     
  0.23000000000000004          0.0000000000000000     
  0.23300000000000004          0.0000000000000000     
  0.23600000000000004          0.0000000000000000     
  0.23900000000000005          0.0000000000000000     
  0.24200000000000005          0.0000000000000000     
  0.24500000000000005          0.0000000000000000     
  0.24800000000000005          0.0000000000000000     
  0.25100000000000006          0.0000000000000000     
  0.25400000000000006          0.0000000000000000     
  0.25700000000000006          0.0000000000000000     
  0.26000000000000006          0.0000000000000000     
  0.26300000000000007          0.0000000000000000     
  0.26600000000000007          0.0000000000000000     
  0.26900000000000007          0.0000000000000000     
  0.27200000000000008          0.0000000000000000     
  0.27500000000000008          0.0000000000000000     
  0.27800000000000008          0.0000000000000000     
  0.28100000000000008          0.0000000000000000     
  0.28400000000000009          0.0000000000000000     
  0.28700000000000009          0.0000000000000000     
  0.29000000000000009          0.0000000000000000     
  0.29300000000000009          0.0000000000000000     
  0.29600000000000010          0.0000000000000000     
  0.29900000000000010          0.0000000000000000     
  0.30200000000000010          0.0000000000000000     
  0.30499999999999999          0.0000000000000000     
  0.30800000000000000          0.0000000000000000     
  0.31100000000000000          0.0000000000000000     
  0.31400000000000000          0.0000000000000000     
  0.31700000000000000          0.0000000000000000     
  0.32000000000000001          0.0000000000000000     
  0.32300000000000001          0.0000000000000000     
  0.32600000000000001          0.0000000000000000     
  0.32900000000000001          0.0000000000000000     
  0.33200000000000002          0.0000000000000000     
  0.33500000000000002          0.0000000000000000     
  0.33800000000000002          0.0000000000000000     
  0.34100000000000003          0.0000000000000000     
  0.34400000000000003          0.0000000000000000     
  0.34700000000000003          0.0000000000000000     
  0.35000000000000003          0.0000000000000000     
  0.35300000000000004          6.8077732003474379E-042
  0.35600000000000004          1.1198922287247311E-041
  0.35900000000000004         -1.9523870149907091E-041
  0.36200000000000004          1.1593553631037416E-041
  0.36500000000000005          3.8647212471653953E-041
  0.36800000000000005         -5.5047433528344096E-041
  0.37100000000000005         -7.5316017525130611E-040
  0.37400000000000005         -1.3123447758826530E-039
  0.37700000000000006         -1.5310674357755014E-039
  0.38000000000000006         -1.0610272685414734E-039
  0.38300000000000006          2.5703335654712880E-040
  0.38600000000000007          2.2861619781455519E-039
  0.38900000000000007          1.9574693097244173E-039
  0.39200000000000007          1.9111512250927891E-039
  0.39500000000000007          1.0342617311697601E-039
  0.39800000000000008         -3.5239937440139063E-040
  0.40100000000000008         -4.8578300055147437E-039
  0.40400000000000008         -4.7320091226175771E-039
  0.40700000000000008         -3.9276556424338401E-039
  0.41000000000000009         -7.6621489430349080E-040
  0.41300000000000009          4.3879564851254558E-039
  0.41600000000000009          1.4683949048958838E-038
  0.41900000000000009          2.0173492937220775E-038
  0.42200000000000010          2.4232069204741684E-038
  0.42500000000000010          2.0674594357273895E-038
  0.42800000000000010          5.8883731215890412E-039
  0.43100000000000011         -2.1527540565142175E-038
  0.43400000000000000         -5.8434845922807406E-038
  0.43700000000000000         -9.6523293054824637E-038
  0.44000000000000000         -1.2021779873813646E-037
  0.44300000000000000         -1.1076291393615550E-037
  0.44600000000000001         -5.0189340928426747E-038
  0.44900000000000001          7.0661280932848726E-038
  0.45200000000000001          2.4313953453168068E-037
  0.45500000000000002          4.3307023342284441E-037
  0.45800000000000002          5.7819034792987301E-037
  0.46100000000000002          5.9466011794575708E-037
  0.46400000000000002          3.9549779561284953E-037
  0.46700000000000003         -7.8941087615240631E-038
  0.47000000000000003         -8.2263581681237586E-037
  0.47300000000000003         -1.7271972343196650E-036
  0.47600000000000003         -2.5608860049650229E-036
  0.47900000000000004         -2.9796804385180829E-036
  0.48200000000000004         -2.5844078526216196E-036
  0.48500000000000004         -1.0296009345085141E-036
  0.48800000000000004          1.8251699478275567E-036
  0.49100000000000005          5.7502492325697122E-036
  0.49400000000000005          1.0015967262743001E-035
  0.49700000000000005          1.3360698593045002E-035
  0.50000000000000000          1.4120169472642039E-035
  0.50300000000000011          1.0561124210712554E-035
  0.50600000000000001          1.4175709523710277E-036
  0.50900000000000012         -1.3438948190421889E-035
  0.51200000000000001         -3.2342193190137736E-035
  0.51500000000000012         -5.1404805255845706E-035
  0.51800000000000002         -6.4577779048284449E-035
  0.52100000000000013         -6.4425357649009316E-035
  0.52400000000000002         -4.3736747659828191E-035
  0.52700000000000014          2.1039956435306454E-036
  0.53000000000000003          7.2339845709799423E-035
  0.53300000000000014          1.5830106295532383E-034
  0.53600000000000003          2.4199247410987589E-034
  0.53900000000000015          2.9678731725731020E-034
  0.54200000000000004          2.9105019163249243E-034
  0.54500000000000015          1.9503666353204078E-034
  0.54800000000000004         -9.3775733443126028E-036
  0.55100000000000016         -3.1762476566320126E-034
  0.55400000000000005         -6.9259299516448264E-034
  0.55700000000000016         -1.0594058496335974E-033
  0.56000000000000005         -1.3084973564544098E-033
  0.56299999999999994         -1.3099844350500035E-033
  0.56600000000000006         -9.4053705354139370E-034
  0.56899999999999995         -1.2101996286727262E-034
  0.57200000000000006          1.1405903671196102E-033
  0.57499999999999996          2.7103937057074366E-033
  0.57800000000000007          4.3063063405900589E-033
  0.58099999999999996          5.5058056269260291E-033
  0.58400000000000007          5.7949908823016204E-033
  0.58699999999999997          4.6641917388041854E-033
  0.59000000000000008          1.7452988136787612E-033
  0.59299999999999997         -3.0270120109799541E-033
  0.59600000000000009         -9.2618763272123643E-033
  0.59899999999999998         -1.6009757970764884E-032
  0.60200000000000009         -2.1759205836086863E-032
  0.60500000000000020         -2.4575927558969095E-032
  0.60800000000000010         -2.2409284344453489E-032
  0.61100000000000021         -1.3559610582827923E-032
  0.61400000000000010          2.7433864035256865E-033
  0.61700000000000021          2.5748456090917170E-032
  0.62000000000000011          5.2717215931871370E-032
  0.62300000000000022          7.8751383438099362E-032
  0.62600000000000011          9.7074184975728897E-032
  0.62900000000000000          9.9882220761929491E-032
  0.63200000000000012          7.9793621738629359E-032
  0.63500000000000001          3.1785654148170347E-032
  0.63800000000000012         -4.4640715834290132E-032
  0.64100000000000001         -1.4348962993724740E-031
  0.64400000000000013         -2.5102760876352968E-031
  0.64700000000000002         -3.4584170711346560E-031
  0.65000000000000013         -4.0069108944575064E-031
  0.65300000000000002         -3.8641956373343783E-031
  0.65600000000000014         -2.7783042409486507E-031
  0.65900000000000003         -6.0947092447418929E-032
  0.66200000000000014          2.5944432582387929E-031
  0.66500000000000004          6.5354199156096293E-031
  0.66800000000000015          1.0634276700766441E-030
  0.67100000000000004          1.4049736079193537E-030
  0.67400000000000015          1.5761862870809895E-030
  0.67700000000000005          1.4725421928501975E-030
  0.68000000000000016          1.0085677726341460E-030
  0.68300000000000005          1.4331313693206006E-031
  0.68600000000000017         -1.0942890037457478E-030
  0.68900000000000006         -2.5855584959760323E-030
  0.69200000000000017         -4.1138201065052863E-030
  0.69500000000000006         -5.3735856786851893E-030
  0.69800000000000018         -6.0013996236924996E-030
  0.70100000000000007         -5.6295704999822001E-030
  0.70400000000000018         -3.9597894548432225E-030
  0.70700000000000007         -8.4855845712558474E-031
  0.71000000000000019          3.6086701242355512E-030
  0.71300000000000008          9.0119205122576451E-030
  0.71600000000000019          1.4628975711823544E-029
  0.71900000000000008          1.9423701146475852E-029
  0.72200000000000020          2.2153624141176139E-029
  0.72500000000000009          2.1540813943060654E-029
  0.72800000000000020          1.6507225410625979E-029
  0.73100000000000009          6.4506138945301313E-030
  0.73400000000000021         -8.4784210292459642E-030
  0.73700000000000010         -2.7150209952473736E-029
  0.74000000000000021         -4.7339677738262277E-029
  0.74300000000000010         -6.5776688550781399E-029
  0.74600000000000022         -7.8406987719354605E-029
  0.74900000000000011         -8.0882346690275428E-029
  0.75200000000000022         -6.9262577036793296E-029
  0.75500000000000012         -4.0867871188944991E-029
  0.75800000000000001          4.8250525245532522E-030
  0.76100000000000012          6.5390419486033820E-029
  0.76400000000000001          1.3493728081953078E-028
  0.76700000000000013          2.0404615044151707E-028
  0.77000000000000002          2.6030644952422277E-028
  0.77300000000000013          2.8954423815369554E-028
  0.77600000000000002          2.7773439573649998E-028
  0.77900000000000014          2.1347393643247992E-028
  0.78200000000000003          9.0761586848061695E-029
  0.78500000000000014         -8.8299160732129828E-029
  0.78800000000000003         -3.1134937908343895E-028
  0.79100000000000015         -5.5469972470906259E-028
  0.79400000000000004         -7.8382502414355025E-028
  0.79700000000000015         -9.5580077715049466E-028
  0.80000000000000004         -1.0238454066162371E-027
  0.80300000000000016         -9.4383534498429128E-028
  0.80600000000000005         -6.8230116123899059E-028
  0.80900000000000016         -2.2504549388365106E-028
  0.81200000000000006          4.1481853779871342E-028
  0.81500000000000017          1.1908442792567434E-027
  0.81800000000000006          2.0207664096414631E-027
  0.82100000000000017          2.7889311541647614E-027
  0.82400000000000007          3.3546375881980903E-027
  0.82700000000000018          3.5667526761827331E-027
  0.83000000000000007          3.2840975063093512E-027
  0.83300000000000018          2.4000963652224396E-027
  0.83600000000000008          8.6911704291164604E-028
  0.83900000000000019         -1.2689722889439081E-027
  0.84200000000000008         -3.8702213909544137E-027
  0.84500000000000020         -6.6783594030218579E-027
  0.84800000000000009         -9.3309580220731912E-027
  0.85100000000000020         -1.1382989343460441E-026
  0.85400000000000009         -1.2349066764657584E-026
  0.85700000000000021         -1.1763285954653965E-026
  0.86000000000000010         -9.2528032228961138E-027
  0.86300000000000021         -4.6182747178836683E-027
  0.86600000000000010          2.0884501041369850E-027
  0.86900000000000022          1.0501119324569709E-026
  0.87200000000000011          1.9903214308971182E-026
  0.87500000000000022          2.9231656068046527E-026
  0.87800000000000011          3.7130244437489021E-026
  0.88100000000000001          4.2058615692140567E-026
  0.88400000000000012          4.2456417006220155E-026
  0.88700000000000001          3.6955008930176022E-026
  0.89000000000000012          2.4620112719012464E-026
  0.89300000000000002          5.2008907724395099E-027
  0.89600000000000013         -2.0646678026615789E-026
  0.89900000000000002         -5.1199045729486542E-026
  0.90200000000000014         -8.3604927789086624E-026
  0.90500000000000003         -1.1396041739118538E-025
  0.90800000000000014         -1.3754506734811016E-025
  0.91100000000000003         -1.4923012687477504E-025
  0.91400000000000015         -1.4405062600245870E-025
  0.91700000000000004         -1.1790913308559918E-025
  0.92000000000000015         -6.8354320032624674E-026
  0.92300000000000004          4.6475436860828935E-027
  0.92600000000000016          9.8049344783087418E-026
  0.92900000000000005          2.0528293440204493E-025
  0.93200000000000016          3.1615544619767138E-025
  0.93500000000000005          4.1718488404881582E-025
  0.93800000000000017          4.9244566363080177E-025
  0.94100000000000006          5.2495031040336955E-025
  0.94400000000000017          4.9853319425261789E-025
  0.94700000000000006          4.0012841629176716E-025
  0.95000000000000018          2.2226064481739244E-025
  0.95300000000000007         -3.4508897622627590E-026
  0.95600000000000018         -3.5949411682639390E-025
  0.95900000000000007         -7.3050850046834597E-025
  0.96200000000000019         -1.1135517948740674E-024
  0.96500000000000008         -1.4638758883135260E-024
  0.96800000000000019         -1.7286505912466690E-024
  0.97100000000000009         -1.8513223759326681E-024
  0.97400000000000020         -1.7775630920295721E-024
  0.97700000000000009         -1.4625050012768845E-024
  0.98000000000000020         -8.7871180846509321E-025
  0.98300000000000010         -2.4127757136555000E-026
  0.98600000000000021          1.0709650760127872E-024
  0.98900000000000010          2.3390580630770012E-024
  0.99200000000000021          3.6736969995762391E-024
  0.99500000000000011          4.9319493274942395E-024
  0.99800000000000022          5.9418345784954399E-024
   1.0010000000000001          6.5150901156541327E-024
   1.0040000000000002          6.4651440019294402E-024
   1.0070000000000001          5.6295098021872103E-024
   1.0100000000000000          3.8951135125986844E-024
   1.0130000000000001          1.2243939237926438E-024
   1.0160000000000000         -2.3206947129461448E-024
   1.0190000000000001         -6.5599842287497149E-024
   1.0220000000000000         -1.1185244832623471E-023
   1.0250000000000001         -1.5762467020169784E-023
   1.0280000000000000         -1.9749083953209668E-023
   1.0310000000000001         -2.2527885795765948E-023
   1.0340000000000000         -2.3458017842246498E-023
   1.0370000000000001         -2.1941543508625130E-023
   1.0400000000000000         -1.7501993342285010E-023
   1.0430000000000001         -9.8691970304351500E-024
   1.0460000000000000          9.3760591917109406E-025
   1.0490000000000002          1.4537826755249786E-023
   1.0520000000000000          3.0139625703653170E-023
   1.0550000000000002          4.6522830896322378E-023
   1.0580000000000001          6.2064753275667660E-023
   1.0610000000000002          7.4816513676982894E-023
   1.0640000000000001          8.2634189830410419E-023
   1.0670000000000002          8.3363776389500935E-023
   1.0700000000000001          7.5073410362469670E-023
   1.0730000000000002          5.6319369340699431E-023
   1.0760000000000001          2.6425360809385876E-023
   1.0790000000000002         -1.4250995978868249E-023
   1.0820000000000001         -6.4096541737136897E-023
   1.0850000000000002         -1.2009989294096244E-022
   1.0880000000000001         -1.7782208947403178E-022
   1.0910000000000002         -2.3151119445577483E-022
   1.0940000000000001         -2.7438356688084922E-022
   1.0970000000000002         -2.9908295964394198E-022
