 -0.39999999999999997          0.0000000000000000     
 -0.39699999999999996          0.0000000000000000     
 -0.39399999999999996          0.0000000000000000     
 -0.39099999999999996          0.0000000000000000     
 -0.38799999999999996          0.0000000000000000     
 -0.38499999999999995          0.0000000000000000     
 -0.38199999999999995          0.0000000000000000     
 -0.37899999999999995          0.0000000000000000     
 -0.37599999999999995          0.0000000000000000     
 -0.37299999999999994          0.0000000000000000     
 -0.37000000000000000          0.0000000000000000     
 -0.36699999999999999          0.0000000000000000     
 -0.36399999999999999          0.0000000000000000     
 -0.36099999999999999          0.0000000000000000     
 -0.35799999999999998          0.0000000000000000     
 -0.35499999999999998          0.0000000000000000     
 -0.35199999999999998          0.0000000000000000     
 -0.34899999999999998          0.0000000000000000     
 -0.34599999999999997          0.0000000000000000     
 -0.34299999999999997          0.0000000000000000     
 -0.33999999999999997          0.0000000000000000     
 -0.33699999999999997          0.0000000000000000     
 -0.33399999999999996          0.0000000000000000     
 -0.33099999999999996          0.0000000000000000     
 -0.32799999999999996          0.0000000000000000     
 -0.32499999999999996          0.0000000000000000     
 -0.32199999999999995          0.0000000000000000     
 -0.31899999999999995          0.0000000000000000     
 -0.31599999999999995          0.0000000000000000     
 -0.31299999999999994          0.0000000000000000     
 -0.30999999999999994          0.0000000000000000     
 -0.30699999999999994          0.0000000000000000     
 -0.30399999999999994          0.0000000000000000     
 -0.30099999999999993          0.0000000000000000     
 -0.29799999999999993          0.0000000000000000     
 -0.29499999999999998          0.0000000000000000     
 -0.29199999999999998          0.0000000000000000     
 -0.28899999999999998          0.0000000000000000     
 -0.28599999999999998         -1.6088707688726025E-041
 -0.28299999999999997          4.8101460944245085E-040
 -0.27999999999999997          4.3415765154376908E-040
 -0.27699999999999997         -4.4662732652938786E-039
 -0.27399999999999997          8.1229625461637436E-039
 -0.27099999999999996          2.2995566110596918E-038
 -0.26799999999999996         -1.0378673371809604E-037
 -0.26499999999999996          1.1207143585335184E-038
 -0.26199999999999996          6.2079866634497825E-037
 -0.25899999999999995         -8.1287402185005870E-037
 -0.25599999999999995         -2.7049097231063648E-036
 -0.25300000000000000          7.2292451202026796E-036
 -0.24999999999999997          7.8949722234555097E-036
 -0.24699999999999997         -4.3855158192460484E-035
 -0.24399999999999997         -6.2353711673636052E-036
 -0.24099999999999996          2.1466550593461326E-034
 -0.23799999999999996         -1.0277433621911724E-034
 -0.23499999999999996         -9.0349155292805379E-034
 -0.23199999999999996          8.8559528428512628E-034
 -0.22899999999999995          3.3892145289114589E-033
 -0.22599999999999995         -4.8505868616352372E-033
 -0.22299999999999998         -1.1638249448331709E-032
 -0.21999999999999997          2.1490306858043544E-032
 -0.21699999999999997          3.7483174594167599E-032
 -0.21399999999999997         -8.2482102559674535E-032
 -0.21099999999999997         -1.1592532145293224E-031
 -0.20799999999999996          2.8179734931898803E-031
 -0.20499999999999996          3.5115888220434598E-031
 -0.20199999999999996         -8.6449794378219365E-031
 -0.19899999999999995         -1.0512642385786075E-030
 -0.19599999999999995          2.3698310180248131E-030
 -0.19299999999999995          3.0852640478477935E-030
 -0.18999999999999997         -5.6808390645042616E-030
 -0.18699999999999997         -8.6503656514737814E-030
 -0.18399999999999997          1.1273759736758092E-029
 -0.18099999999999997          2.2226214726117647E-029
 -0.17799999999999996         -1.5676617194427355E-029
 -0.17499999999999996         -4.9023472621275284E-029
 -0.17199999999999996          2.0321126273989827E-030
 -0.16899999999999996          8.0258797292924024E-029
 -0.16599999999999995          7.2574968383604519E-029
 -0.16299999999999995         -3.9535018554058043E-029
 -0.15999999999999998         -2.5650300967658370E-028
 -0.15699999999999997         -3.3524053255500469E-028
 -0.15399999999999997          4.1910323716347742E-028
 -0.15099999999999997          1.5803331713924823E-027
 -0.14799999999999996          3.3678714082982138E-028
 -0.14499999999999996         -4.0007887881005875E-027
 -0.14199999999999996         -4.5927308017505914E-027
 -0.13899999999999996          5.1363524673600438E-027
 -0.13599999999999995          1.5789794375027607E-026
 -0.13299999999999995          5.8844246943823724E-027
 -0.12999999999999995         -2.8702357206677555E-026
 -0.12699999999999995         -5.0494566810512139E-026
 -0.12399999999999994          1.9719565831694089E-027
 -0.12099999999999994          1.2909653436570467E-025
 -0.11799999999999994          1.6893491786274789E-025
 -0.11499999999999994         -1.0284769647727706E-025
 -0.11199999999999993         -5.5489579391878349E-025
 -0.10899999999999999         -4.6975901690979607E-025
 -0.10599999999999998          7.1489666347361202E-025
 -0.10299999999999998          2.0575082207809992E-024
  -9.9999999999999978E-002     1.1046277397469605E-024
  -9.6999999999999975E-002    -3.3009149018580998E-024
  -9.3999999999999972E-002    -7.2294741722185574E-024
  -9.0999999999999970E-002    -2.4785860299131760E-024
  -8.7999999999999967E-002     1.3521101832580899E-023
  -8.4999999999999964E-002     2.5251944941021133E-023
  -8.1999999999999962E-002     4.7340027321678514E-024
  -7.8999999999999959E-002    -5.1842291721039372E-023
  -7.5999999999999956E-002    -8.6410337351971876E-023
  -7.2999999999999954E-002    -7.8709532215913840E-024
  -6.9999999999999951E-002     1.8563773885010519E-022
  -6.6999999999999948E-002     2.9489902783676199E-022
  -6.3999999999999946E-002     2.2277601881348984E-023
  -6.0999999999999943E-002    -6.3303125284019680E-022
  -5.7999999999999940E-002    -1.0133322397539626E-021
  -5.4999999999999938E-002    -1.3031328779839057E-022
  -5.1999999999999935E-002     2.0601784952558855E-021
  -4.8999999999999932E-002     3.4711762213682422E-021
  -4.5999999999999985E-002     8.4081965668187218E-022
  -4.2999999999999983E-002    -6.3153829966382431E-021
  -3.9999999999999980E-002    -1.1750456481745999E-020
  -3.6999999999999977E-002    -4.7798714966798476E-021
  -3.3999999999999975E-002     1.7899722806558960E-020
  -3.0999999999999972E-002     3.8805490495203441E-020
  -2.7999999999999969E-002     2.3595764800929235E-020
  -2.4999999999999967E-002    -4.5031057978826478E-020
  -2.1999999999999964E-002    -1.2272790949413234E-019
  -1.8999999999999961E-002    -1.0335692791816262E-019
  -1.5999999999999959E-002     9.0331572461051023E-020
  -1.2999999999999956E-002     3.6368531978539078E-019
  -9.9999999999999534E-003     4.0710345374030684E-019
  -6.9999999999999507E-003    -8.4928307300859404E-020
  -3.9999999999999480E-003    -9.7908680804103542E-019
  -9.9999999999994538E-004    -1.4447595267145821E-018
   2.0000000000000573E-003    -4.0001625424438334E-019
   5.0000000000000600E-003     2.2643107182988820E-018
   8.0000000000000626E-003     4.5855450611028349E-018
   1.1000000000000065E-002     3.1336755949311590E-018
   1.4000000000000068E-002    -3.8852058828957011E-018
   1.7000000000000015E-002    -1.2751929173427265E-017
   2.0000000000000018E-002    -1.3855890354624325E-017
   2.3000000000000020E-002     1.5555651365422298E-018
   2.6000000000000023E-002     2.9629884246760506E-017
   2.9000000000000026E-002     4.7336241578214757E-017
   3.2000000000000028E-002     2.3589192020499156E-017
   3.5000000000000031E-002    -5.0277237011988696E-017
   3.8000000000000034E-002    -1.3079779228551373E-016
   4.1000000000000036E-002    -1.2912394930732751E-016
   4.4000000000000039E-002     2.3798039687477081E-017
   4.7000000000000042E-002     2.8155388085273843E-016
   5.0000000000000044E-002     4.4067266227084274E-016
   5.3000000000000047E-002     2.4210626448342606E-016
   5.6000000000000050E-002    -3.8664488835412831E-016
   5.9000000000000052E-002    -1.1073223240958070E-015
   6.2000000000000055E-002    -1.2202610051126216E-015
   6.5000000000000058E-002    -1.3493096308168585E-016
   6.8000000000000060E-002     1.9308760236810288E-015
   7.1000000000000063E-002     3.5883931047033979E-015
   7.4000000000000066E-002     2.8572495638227660E-015
   7.7000000000000068E-002    -1.2582428841483816E-015
   8.0000000000000016E-002    -7.1045768961715039E-015
   8.3000000000000018E-002    -1.0208863657441637E-014
   8.6000000000000021E-002    -5.7273028527101104E-015
   8.9000000000000024E-002     7.1898241591406124E-015
   9.2000000000000026E-002     2.2065783202385139E-014
   9.5000000000000029E-002     2.6527437660539877E-014
   9.8000000000000032E-002     9.9860091078895203E-015
  0.10100000000000003         -2.5798017115988300E-014
  0.10400000000000004         -6.1082351220478409E-014
  0.10700000000000004         -6.5103484616703712E-014
  0.11000000000000004         -1.6327974953465395E-014
  0.11300000000000004          7.4363962012550769E-014
  0.11600000000000005          1.5553662777817462E-013
  0.11900000000000005          1.5621849104831589E-013
  0.12200000000000005          3.2955808784300333E-014
  0.12500000000000006         -1.8252843988955734E-013
  0.12800000000000006         -3.7200800803782019E-013
  0.13100000000000006         -3.8003399614089400E-013
  0.13400000000000006         -1.1193455922368771E-013
  0.13700000000000007          3.7190923362256366E-013
  0.14000000000000007          8.3411945873486810E-013
  0.14300000000000007          9.5153316583943183E-013
  0.14600000000000007          4.9554006068722618E-013
  0.14900000000000008         -4.8891421206525701E-013
  0.15200000000000008         -1.6191674935797589E-012
  0.15500000000000008         -2.2936952214565900E-012
  0.15800000000000008         -1.9654411496387394E-012
  0.16100000000000009         -4.4631552538096948E-013
  0.16400000000000009          1.9139807000948288E-012
  0.16700000000000009          4.2791431793805184E-012
  0.17000000000000010          5.6007782096638845E-012
  0.17300000000000010          5.0049735482371940E-012
  0.17600000000000010          2.1393830893766917E-012
  0.17899999999999999         -2.6337225114332008E-012
  0.18200000000000000         -8.2372698698733321E-012
  0.18500000000000000         -1.3053210530573883E-011
  0.18800000000000000         -1.5240076506471111E-011
  0.19100000000000000         -1.3176310648025389E-011
  0.19400000000000001         -5.9957801435680784E-012
  0.19700000000000001          5.8893311521932534E-012
  0.20000000000000001          2.0475141799981101E-011
  0.20300000000000001          3.4290265553827415E-011
  0.20600000000000002          4.3083158037717357E-011
  0.20900000000000002          4.2971715245859536E-011
  0.21200000000000002          3.1710141032466558E-011
  0.21500000000000002          9.6136057206843041E-012
  0.21800000000000003         -2.0216391116846147E-011
  0.22100000000000003         -5.2439961762009041E-011
  0.22400000000000003         -8.0563701024125603E-011
  0.22700000000000004         -9.8163822152472919E-011
  0.23000000000000004         -9.9905336627851401E-011
  0.23300000000000004         -8.2236712226037837E-011
  0.23600000000000004         -4.3851916181716229E-011
  0.23900000000000005          1.3915859376173621E-011
  0.24200000000000005          8.6706292651890167E-011
  0.24500000000000005          1.6687177762040363E-010
  0.24800000000000005          2.4358388030749298E-010
  0.25100000000000006          3.0348902311098558E-010
  0.25400000000000006          3.3192014502449623E-010
  0.25700000000000006          3.1444968298541162E-010
  0.26000000000000006          2.3844272745924735E-010
  0.26300000000000007          9.4257489706203804E-011
  0.26600000000000007         -1.2411884911015195E-010
  0.26900000000000007         -4.1906327763720224E-010
  0.27200000000000008         -7.8993341767478218E-010
  0.27500000000000008         -1.2341413648702203E-009
  0.27800000000000008         -1.7485127852811534E-009
  0.28100000000000008         -2.3308532425418061E-009
  0.28400000000000009         -2.9815371925906682E-009
  0.28700000000000009         -3.7049694944384265E-009
  0.29000000000000009         -4.5109214377485754E-009
  0.29300000000000009         -5.4156792684259939E-009
  0.29600000000000010         -6.4430063119237115E-009
  0.29900000000000010         -7.6246701741785426E-009
  0.30200000000000010         -9.0008357156823266E-009
  0.30499999999999999         -1.0620245110858359E-008
  0.30800000000000000         -1.2540039888306352E-008
  0.31100000000000000         -1.4825655124029201E-008
  0.31400000000000000         -1.7550789576280853E-008
  0.31700000000000000         -2.0797523705423103E-008
  0.32000000000000001         -2.4656692621635407E-008
  0.32300000000000001         -2.9228589619570390E-008
  0.32600000000000001         -3.4624323853490329E-008
  0.32900000000000001         -4.0967182805845451E-008
  0.33200000000000002         -4.8395708231653504E-008
  0.33500000000000002         -5.7065685549676425E-008
  0.33800000000000002         -6.7152635738363853E-008
  0.34100000000000003         -7.8855373546194112E-008
  0.34400000000000003         -9.2399183138978553E-008
  0.34700000000000003         -1.0803896915902054E-007
  0.35000000000000003         -1.2606159684761263E-007
  0.35300000000000004         -1.4678961922293611E-007
  0.35600000000000004         -1.7058644658298596E-007
  0.35900000000000004         -1.9785589347300319E-007
  0.36200000000000004         -2.2904623369684103E-007
  0.36500000000000005         -2.6465216139705409E-007
  0.36800000000000005         -3.0521698692293097E-007
  0.37100000000000005         -3.5133445855171966E-007
  0.37400000000000005         -4.0365429695417209E-007
  0.37700000000000006         -4.6288090118890594E-007
  0.38000000000000006         -5.2977897959315597E-007
  0.38300000000000006         -6.0517513537839667E-007
  0.38600000000000007         -6.8995326956671825E-007
  0.38900000000000007         -7.8506257852613917E-007
  0.39200000000000007         -8.9150993913058105E-007
  0.39500000000000007         -1.0103721484670411E-006
  0.39800000000000008         -1.1427850547258813E-006
  0.40100000000000008         -1.2899463692393830E-006
  0.40400000000000008         -1.4530890530330454E-006
  0.40700000000000008         -1.6335337287426764E-006
  0.41000000000000009         -1.8326252224947628E-006
  0.41300000000000009         -2.0517402794766406E-006
  0.41600000000000009         -2.2922937569077083E-006
  0.41900000000000009         -2.5557106081061793E-006
  0.42200000000000010         -2.8434412846689057E-006
  0.42500000000000010         -3.1568638743924793E-006
  0.42800000000000010         -3.4973787958249868E-006
  0.43100000000000011         -3.8663287088493692E-006
  0.43400000000000000         -4.2649531399503144E-006
  0.43700000000000000         -4.6944106673809160E-006
  0.44000000000000000         -5.1557279655657953E-006
  0.44300000000000000         -5.6497556871020399E-006
  0.44600000000000001         -6.1772192977863438E-006
  0.44900000000000001         -6.7385628256415337E-006
  0.45200000000000001         -7.3339963314435911E-006
  0.45500000000000002         -7.9634351869066355E-006
  0.45800000000000002         -8.6265354411204121E-006
  0.46100000000000002         -9.3224563443651552E-006
  0.46400000000000002         -1.0050066806185823E-005
  0.46700000000000003         -1.0807813782294794E-005
  0.47000000000000003         -1.1593597323808158E-005
  0.47300000000000003         -1.2404869086061172E-005
  0.47600000000000003         -1.3238490625012230E-005
  0.47900000000000004         -1.4090790416601300E-005
  0.48200000000000004         -1.4957466420210298E-005
  0.48500000000000004         -1.5833752109320426E-005
  0.48800000000000004         -1.6714128482762603E-005
  0.49100000000000005         -1.7592379899395921E-005
  0.49400000000000005         -1.8461799928489840E-005
  0.49700000000000005         -1.9314869538435553E-005
  0.50000000000000000         -2.0143682694283531E-005
  0.50300000000000011         -2.0939725834974261E-005
  0.50600000000000001         -2.1693638620371890E-005
  0.50900000000000012         -2.2395780187045165E-005
  0.51200000000000001         -2.3036004924146653E-005
  0.51500000000000012         -2.3603905719705179E-005
  0.51800000000000002         -2.4088622478946484E-005
  0.52100000000000013         -2.4478806236769361E-005
  0.52400000000000002         -2.4763844594524977E-005
  0.52700000000000014         -2.4932122701142403E-005
  0.53000000000000003         -2.4972457533887314E-005
  0.53300000000000014         -2.4874343600793874E-005
  0.53600000000000003         -2.4627303670955044E-005
  0.53900000000000015         -2.4221173752039599E-005
  0.54200000000000004         -2.3646794155397866E-005
  0.54500000000000015         -2.2895569221627594E-005
  0.54800000000000004         -2.1960305016328025E-005
  0.55100000000000016         -2.0834318322699225E-005
  0.55400000000000005         -1.9512642837911976E-005
  0.55700000000000016         -1.7991463632814789E-005
  0.56000000000000005         -1.6268949235095817E-005
  0.56299999999999994         -1.4344778837110331E-005
  0.56600000000000006         -1.2220405663958307E-005
  0.56899999999999995         -9.8986845602121264E-006
  0.57200000000000006         -7.3848588496986814E-006
  0.57499999999999996         -4.6866357505890856E-006
  0.57800000000000007         -1.8132532009981222E-006
  0.58099999999999996          1.2236115872469493E-006
  0.58400000000000007          4.4103863514011145E-006
  0.58699999999999997          7.7311497535983338E-006
  0.59000000000000008          1.1168530567226345E-005
  0.59299999999999997          1.4702558338017997E-005
  0.59600000000000009          1.8311964612586731E-005
  0.59899999999999998          2.1973608687859530E-005
  0.60200000000000009          2.5662666218844638E-005
  0.60500000000000020          2.9353302314472360E-005
  0.60800000000000010          3.3018564262764044E-005
  0.61100000000000021          3.6630568922127704E-005
  0.61400000000000010          4.0161014035734560E-005
  0.61700000000000021          4.3580984966279843E-005
  0.62000000000000011          4.6862138869914835E-005
  0.62300000000000022          4.9975771474265183E-005
  0.62600000000000011          5.2894442317801322E-005
  0.62900000000000000          5.5591225094081026E-005
  0.63200000000000012          5.8040584468781539E-005
  0.63500000000000001          6.0218659479454131E-005
  0.63800000000000012          6.2103236734936245E-005
  0.64100000000000001          6.3674255200942708E-005
  0.64400000000000013          6.4914176806182429E-005
  0.64700000000000002          6.5807987818890381E-005
  0.65000000000000013          6.6343558319846300E-005
  0.65300000000000002          6.6511595650372207E-005
  0.65600000000000014          6.6306397557723733E-005
  0.65900000000000003          6.5724849544491744E-005
  0.66200000000000014          6.4767828458908244E-005
  0.66500000000000004          6.3438748404817772E-005
  0.66800000000000015          6.1745522409684304E-005
  0.67100000000000004          5.9698407184672573E-005
  0.67400000000000015          5.7311198866268539E-005
  0.67700000000000005          5.4600617240722664E-005
  0.68000000000000016          5.1586633468176301E-005
  0.68300000000000005          4.8291201936169028E-005
  0.68600000000000017          4.4739599590141453E-005
  0.68900000000000006          4.0958565596930940E-005
  0.69200000000000017          3.6977240574526136E-005
  0.69500000000000006          3.2826531688625717E-005
  0.69800000000000018          2.8537665247693888E-005
  0.70100000000000007          2.4143594515132994E-005
  0.70400000000000018          1.9677920994276877E-005
  0.70700000000000007          1.5173190195783753E-005
  0.71000000000000019          1.0662843050555707E-005
  0.71300000000000008          6.1804302105757142E-006
  0.71600000000000019          1.7574475189329506E-006
  0.71900000000000008         -2.5745016500575833E-006
  0.72200000000000020         -6.7870169580092779E-006
  0.72500000000000009         -1.0852091473546852E-005
  0.72800000000000020         -1.4743801303899472E-005
  0.73100000000000009         -1.8439081436705704E-005
  0.73400000000000021         -2.1916681407386643E-005
  0.73700000000000010         -2.5157786870333841E-005
  0.74000000000000021         -2.8146406506371168E-005
  0.74300000000000010         -3.0869138262159987E-005
  0.74600000000000022         -3.3316291229039329E-005
  0.74900000000000011         -3.5479440350371954E-005
  0.75200000000000022         -3.7354375464583491E-005
  0.75500000000000012         -3.8938773687114956E-005
  0.75800000000000001         -4.0232803096147652E-005
  0.76100000000000012         -4.1239392946840386E-005
  0.76400000000000001         -4.1964443107184334E-005
  0.76700000000000013         -4.2415762516539777E-005
  0.77000000000000002         -4.2602721765977033E-005
  0.77300000000000013         -4.2536855698823594E-005
  0.77600000000000002         -4.2231535348174451E-005
  0.77900000000000014         -4.1701601158821215E-005
  0.78200000000000003         -4.0962511996639555E-005
  0.78500000000000014         -4.0031170399906367E-005
  0.78800000000000003         -3.8925794464158039E-005
  0.79100000000000015         -3.7664114531297339E-005
  0.79400000000000004         -3.6264268656817242E-005
  0.79700000000000015         -3.4745163201218558E-005
  0.80000000000000004         -3.3125687252016125E-005
  0.80300000000000016         -3.1423660285460762E-005
  0.80600000000000005         -2.9656456720895121E-005
  0.80900000000000016         -2.7841918117569777E-005
  0.81200000000000006         -2.5996390173296588E-005
  0.81500000000000017         -2.4134849334341677E-005
  0.81800000000000006         -2.2272069486522953E-005
  0.82100000000000017         -2.0422299411057324E-005
  0.82400000000000007         -1.8597780340020067E-005
  0.82700000000000018         -1.6809261371780509E-005
  0.83000000000000007         -1.5067234548317644E-005
  0.83300000000000018         -1.3380967216037965E-005
  0.83600000000000008         -1.1757647113395761E-005
  0.83900000000000019         -1.0203680971710860E-005
  0.84200000000000008         -8.7252186117001453E-006
  0.84500000000000020         -7.3267686506366675E-006
  0.84800000000000009         -6.0108688958545333E-006
  0.85100000000000020         -4.7796797347038358E-006
  0.85400000000000009         -3.6348575630130393E-006
  0.85700000000000021         -2.5767382859946413E-006
  0.86000000000000010         -1.6045529452010108E-006
  0.86300000000000021         -7.1767812635224223E-007
  0.86600000000000010          8.5158891083762245E-008
  0.86900000000000022          8.0667908794788756E-007
  0.87200000000000011          1.4501674667625916E-006
  0.87500000000000022          2.0185150729978491E-006
  0.87800000000000011          2.5151028657096751E-006
  0.88100000000000001          2.9439418259355075E-006
  0.88400000000000012          3.3090756719373692E-006
  0.88700000000000001          3.6141686423672934E-006
  0.89000000000000012          3.8635575875535362E-006
  0.89300000000000002          4.0620353623324100E-006
  0.89600000000000013          4.2138670920368418E-006
  0.89900000000000002          4.3228996302662329E-006
  0.90200000000000014          4.3931268411686076E-006
  0.90500000000000003          4.4286496266595207E-006
  0.90800000000000014          4.4332069516175578E-006
  0.91100000000000003          4.4102803495615249E-006
  0.91400000000000015          4.3637278486725556E-006
  0.91700000000000004          4.2971392720143225E-006
  0.92000000000000015          4.2131466388555358E-006
  0.92300000000000004          4.1141352543552332E-006
  0.92600000000000016          4.0028270938647892E-006
  0.92900000000000005          3.8818750252552648E-006
  0.93200000000000016          3.7533231398507509E-006
  0.93500000000000005          3.6190606354795632E-006
  0.93800000000000017          3.4812063966171886E-006
  0.94100000000000006          3.3412830507723215E-006
  0.94400000000000017          3.2000468830206111E-006
  0.94700000000000006          3.0585485567023330E-006
  0.95000000000000018          2.9183055711603514E-006
  0.95300000000000007          2.7803680602351858E-006
  0.95600000000000018          2.6451322410279612E-006
  0.95900000000000007          2.5132792828699030E-006
  0.96200000000000019          2.3855035116843175E-006
  0.96500000000000008          2.2617849058986705E-006
  0.96800000000000019          2.1419234014435508E-006
  0.97100000000000009          2.0266050429006337E-006
  0.97400000000000020          1.9164864770922183E-006
  0.97700000000000009          1.8113585618981616E-006
  0.98000000000000020          1.7109040172708693E-006
  0.98300000000000010          1.6153548241831195E-006
  0.98600000000000021          1.5246059225516191E-006
  0.98900000000000010          1.4380366628561227E-006
  0.99200000000000021          1.3556531985215436E-006
  0.99500000000000011          1.2780013728155242E-006
  0.99800000000000022          1.2048892476930175E-006
   1.0010000000000001          1.1356068893531942E-006
   1.0040000000000002          1.0700323713083760E-006
   1.0070000000000001          1.0082835703008950E-006
   1.0100000000000000          9.4990596022112814E-007
   1.0130000000000001          8.9452170089009485E-007
   1.0160000000000000          8.4242777041205243E-007
   1.0190000000000001          7.9371084852111773E-007
   1.0220000000000000          7.4774189036191597E-007
   1.0250000000000001          7.0414553882368626E-007
   1.0280000000000000          6.6317802559199723E-007
   1.0310000000000001          6.2481814561852792E-007
   1.0340000000000000          5.8861203527840363E-007
   1.0370000000000001          5.5447400451864937E-007
   1.0400000000000000          5.2258087851180777E-007
   1.0430000000000001          4.9263375108243101E-007
   1.0460000000000000          4.6420030035901975E-007
   1.0490000000000002          4.3741720656175467E-007
   1.0520000000000000          4.1260092982977540E-007
   1.0550000000000002          3.8952735881544626E-007
   1.0580000000000001          3.6779770962783670E-007
   1.0610000000000002          3.4740302899746338E-007
   1.0640000000000001          3.2838476273430593E-007
   1.0670000000000002          3.1047146940259485E-007
   1.0700000000000001          2.9355035078579731E-007
   1.0730000000000002          2.7793533268641922E-007
   1.0760000000000001          2.6372359073931294E-007
   1.0790000000000002          2.5046285951470267E-007
   1.0820000000000001          2.3784107267536620E-007
   1.0850000000000002          2.2605323675861756E-007
   1.0880000000000001          2.1519186574219351E-007
   1.0910000000000002          2.0501112264336806E-007
   1.0940000000000001          1.9552300961131729E-007
   1.0970000000000002          1.8697701270885560E-007
