 -0.39999999999999997          0.0000000000000000     
 -0.39699999999999996          0.0000000000000000     
 -0.39399999999999996          0.0000000000000000     
 -0.39099999999999996          0.0000000000000000     
 -0.38799999999999996          0.0000000000000000     
 -0.38499999999999995          0.0000000000000000     
 -0.38199999999999995          0.0000000000000000     
 -0.37899999999999995          0.0000000000000000     
 -0.37599999999999995          0.0000000000000000     
 -0.37299999999999994          0.0000000000000000     
 -0.37000000000000000          0.0000000000000000     
 -0.36699999999999999          0.0000000000000000     
 -0.36399999999999999          0.0000000000000000     
 -0.36099999999999999          0.0000000000000000     
 -0.35799999999999998          0.0000000000000000     
 -0.35499999999999998          0.0000000000000000     
 -0.35199999999999998          0.0000000000000000     
 -0.34899999999999998          0.0000000000000000     
 -0.34599999999999997          0.0000000000000000     
 -0.34299999999999997          0.0000000000000000     
 -0.33999999999999997          0.0000000000000000     
 -0.33699999999999997          0.0000000000000000     
 -0.33399999999999996          0.0000000000000000     
 -0.33099999999999996          0.0000000000000000     
 -0.32799999999999996          0.0000000000000000     
 -0.32499999999999996          0.0000000000000000     
 -0.32199999999999995          0.0000000000000000     
 -0.31899999999999995          0.0000000000000000     
 -0.31599999999999995          0.0000000000000000     
 -0.31299999999999994          0.0000000000000000     
 -0.30999999999999994          0.0000000000000000     
 -0.30699999999999994          0.0000000000000000     
 -0.30399999999999994          0.0000000000000000     
 -0.30099999999999993          0.0000000000000000     
 -0.29799999999999993         -1.6394360824755004E-039
 -0.29499999999999998          4.8360239453140143E-039
 -0.29199999999999998          1.4893840236232955E-039
 -0.28899999999999998         -5.8054054197704354E-038
 -0.28599999999999998          1.6715363239441791E-037
 -0.28299999999999997          1.0733679655458663E-037
 -0.27999999999999997         -1.5051649445505640E-036
 -0.27699999999999997          1.8735306556472645E-036
 -0.27399999999999997          7.5379235095610710E-036
 -0.27099999999999996         -2.3741711573526492E-035
 -0.26799999999999996         -1.6215714793545772E-035
 -0.26499999999999996          1.6602088741914764E-034
 -0.26199999999999996         -9.1916351695242460E-035
 -0.25899999999999995         -8.4576468451640810E-034
 -0.25599999999999995          1.2934460696014606E-033
 -0.25300000000000000          3.3331340061301862E-033
 -0.24999999999999997         -9.1023845819075168E-033
 -0.24699999999999997         -9.8984814570109452E-033
 -0.24399999999999997          4.8951434081486755E-032
 -0.24099999999999996          1.7535611236113047E-032
 -0.23799999999999996         -2.2311320100953772E-031
 -0.23499999999999996          2.3341960136355814E-032
 -0.23199999999999996          9.0364942671767463E-031
 -0.22899999999999995         -3.8883289061194595E-031
 -0.22599999999999995         -3.3462549389445895E-030
 -0.22299999999999998          2.2045790225946080E-030
 -0.21999999999999997          1.1550825533869611E-029
 -0.21699999999999997         -9.2177673725393294E-030
 -0.21399999999999997         -3.7646475091160271E-029
 -0.21099999999999997          3.1774743709133678E-029
 -0.20799999999999996          1.1655725074201126E-028
 -0.20499999999999996         -9.2477247604251737E-029
 -0.20199999999999996         -3.4222737324415302E-028
 -0.19899999999999995          2.2248934354455530E-028
 -0.19599999999999995          9.4272923175306180E-028
 -0.19299999999999995         -4.0108445224260444E-028
 -0.18999999999999997         -2.3841841968354647E-027
 -0.18699999999999997          3.1028968190794694E-028
 -0.18399999999999997          5.3258310847775396E-027
 -0.18099999999999997          1.2857652834035678E-027
 -0.17799999999999996         -9.7105522881865805E-027
 -0.17499999999999996         -7.3320934463084059E-027
 -0.17199999999999996          1.1248431475449259E-026
 -0.16899999999999996          2.1019286369984822E-026
 -0.16599999999999995          6.5949256082685552E-027
 -0.16299999999999995         -3.3492096624106798E-026
 -0.15999999999999998         -7.9762454542414571E-026
 -0.15699999999999997         -1.5387494467642146E-026
 -0.15399999999999997          2.3535054613173916E-025
 -0.15099999999999997          3.0208699818122737E-025
 -0.14799999999999996         -3.3725165868326847E-025
 -0.14499999999999996         -1.0894218993587014E-024
 -0.14199999999999996         -2.7483590846940500E-025
 -0.13899999999999996          2.1787248831215737E-024
 -0.13599999999999995          2.9956637385200921E-024
 -0.13299999999999995         -1.2356170281206528E-024
 -0.12999999999999995         -8.2569261127916665E-024
 -0.12699999999999995         -8.1290129075781768E-024
 -0.12399999999999994          8.6664430373105663E-024
 -0.12099999999999994          3.1654919739503324E-023
 -0.11799999999999994          2.1444920421020212E-023
 -0.11499999999999994         -4.8018262230453497E-023
 -0.11199999999999993         -1.1415112922199099E-022
 -0.10899999999999999         -3.9015902560341474E-023
 -0.10599999999999998          2.0957319989547338E-022
 -0.10299999999999998          3.7350906929399971E-022
  -9.9999999999999978E-002     4.2560641311063649E-023
  -9.6999999999999975E-002    -7.8791041747664815E-022
  -9.3999999999999972E-002    -1.2223145707123949E-021
  -9.0999999999999970E-002     3.5390586919065466E-023
  -8.7999999999999967E-002     2.8320858677787292E-021
  -8.4999999999999964E-002     4.0337573996836651E-021
  -8.1999999999999962E-002    -4.8461851625243323E-022
  -7.8999999999999959E-002    -9.7137978689620977E-021
  -7.5999999999999956E-002    -1.3270305729840260E-020
  -7.2999999999999954E-002     1.6731585554121769E-021
  -6.9999999999999951E-002     3.1670893455997689E-020
  -6.6999999999999948E-002     4.4233334316075299E-020
  -6.3999999999999946E-002    -1.7967026740824576E-021
  -6.0999999999999943E-002    -9.8932852966267983E-020
  -5.7999999999999940E-002    -1.4832564958611727E-019
  -5.4999999999999938E-002    -1.6272585616653334E-020
  -5.1999999999999935E-002     2.9240502705616932E-019
  -4.8999999999999932E-002     4.9129876681147722E-019
  -4.5999999999999985E-002     1.5142939533328431E-019
  -4.2999999999999983E-002    -7.9752712353963467E-019
  -3.9999999999999980E-002    -1.5828422133462182E-018
  -3.6999999999999977E-002    -8.5539724705420241E-019
  -3.3999999999999975E-002     1.9227149743302136E-018
  -3.0999999999999972E-002     4.8599291380657334E-018
  -2.7999999999999969E-002     3.8853800424033797E-018
  -2.4999999999999967E-002    -3.6537841291617960E-018
  -2.1999999999999964E-002    -1.3854999447835658E-017
  -1.8999999999999961E-002    -1.5225744516469007E-017
  -1.5999999999999959E-002     2.9531078067554119E-018
  -1.2999999999999956E-002     3.5368103129348736E-017
  -9.9999999999999534E-003     5.2510985440622755E-017
  -6.9999999999999507E-003     1.6901654703468947E-017
  -3.9999999999999480E-003    -7.5386535300874543E-017
  -9.9999999999994538E-004    -1.5881967903351027E-016
   2.0000000000000573E-003    -1.1879729643254160E-016
   5.0000000000000600E-003     1.0826712015285322E-016
   8.0000000000000626E-003     4.1089427192496327E-016
   1.1000000000000065E-002     4.8617600805792905E-016
   1.4000000000000068E-002     4.1054813656188814E-017
   1.7000000000000015E-002    -8.4948382581604264E-016
   2.0000000000000018E-002    -1.5220337375821123E-015
   2.3000000000000020E-002    -1.0093233635996088E-015
   2.6000000000000023E-002     1.0982539139620625E-015
   2.9000000000000026E-002     3.7416517557572316E-015
   3.2000000000000028E-002     4.4133194423427061E-015
   3.5000000000000031E-002     7.8820633123977036E-016
   3.8000000000000034E-002    -6.6139810092636221E-015
   4.1000000000000036E-002    -1.2839660592349791E-014
   4.4000000000000039E-002    -1.0436450679645242E-014
   4.7000000000000042E-002     4.6236767196177882E-015
   5.0000000000000044E-002     2.6365511356303454E-014
   5.3000000000000047E-002     3.7799365912953725E-014
   5.6000000000000050E-002     2.0199073946521978E-014
   5.9000000000000052E-002    -2.9735322747152003E-014
   6.2000000000000055E-002    -8.6420530211895024E-014
   6.5000000000000058E-002    -1.0082696809829968E-013
   6.8000000000000060E-002    -3.1330045356160635E-014
   7.1000000000000063E-002     1.1329120471712953E-013
   7.4000000000000066E-002     2.5078382452296488E-013
   7.7000000000000068E-002     2.5453188858857000E-013
   8.0000000000000016E-002     3.8618290139812238E-014
   8.3000000000000018E-002    -3.4426400252147761E-013
   8.6000000000000021E-002    -6.6901210301233057E-013
   8.9000000000000024E-002    -6.3087056793242389E-013
   9.2000000000000026E-002    -5.3356513746911834E-014
   9.5000000000000029E-002     8.9995811960471068E-013
   9.8000000000000032E-002     1.6778013462021238E-012
  0.10100000000000003          1.5747926925564266E-012
  0.10400000000000004          1.9857162400264976E-013
  0.10700000000000004         -2.0768321669284041E-012
  0.11000000000000004         -4.0164189577585068E-012
  0.11300000000000004         -4.0169550126876155E-012
  0.11600000000000005         -1.0874137006669140E-012
  0.11900000000000005          4.1671149763534222E-012
  0.12200000000000005          9.2356481142860847E-012
  0.12500000000000006          1.0547087285319070E-011
  0.12800000000000006          5.3671087910149742E-012
  0.13100000000000006         -6.0763980499406998E-012
  0.13400000000000006         -1.9493412692741859E-011
  0.13700000000000007         -2.7500332459201459E-011
  0.14000000000000007         -2.2787472710822299E-011
  0.14300000000000007         -2.3602110915883247E-012
  0.14600000000000007          2.9217461966802889E-011
  0.14900000000000008          5.9661876707522036E-011
  0.15200000000000008          7.2826676777299013E-011
  0.15500000000000008          5.5596334698320191E-011
  0.15800000000000008          5.0574486961812081E-012
  0.16100000000000009         -6.7465531717409648E-011
  0.16400000000000009         -1.3792614508941383E-010
  0.16700000000000009         -1.7672132789718463E-010
  0.17000000000000010         -1.5904382736309860E-010
  0.17300000000000010         -7.4457562316079976E-011
  0.17600000000000010          6.7904328418732640E-011
  0.17899999999999999          2.4014593790279833E-010
  0.18200000000000000          4.0155111730186314E-010
  0.18500000000000000          5.0711730739507116E-010
  0.18800000000000000          5.1600878167922897E-010
  0.19100000000000000          3.9829515624062387E-010
  0.19400000000000001          1.3948612957398542E-010
  0.19700000000000001         -2.5726664909537083E-010
  0.20000000000000001         -7.7189640549168547E-010
  0.20300000000000001         -1.3720512553889915E-009
  0.20600000000000002         -2.0217932097658305E-009
  0.20900000000000002         -2.6925174911497479E-009
  0.21200000000000002         -3.3722652831417739E-009
  0.21500000000000002         -4.0696041382455416E-009
  0.21800000000000003         -4.8105060258256687E-009
  0.22100000000000003         -5.6309963350098269E-009
  0.22400000000000003         -6.5707250167575623E-009
  0.22700000000000004         -7.6721640060202339E-009
  0.23000000000000004         -8.9856061095756086E-009
  0.23300000000000004         -1.0575225851748546E-008
  0.23600000000000004         -1.2519870908716610E-008
  0.23900000000000005         -1.4905558738228719E-008
  0.24200000000000005         -1.7813223624700649E-008
  0.24500000000000005         -2.1310259964393756E-008
  0.24800000000000005         -2.5453413755055270E-008
  0.25100000000000006         -3.0304041233568622E-008
  0.25400000000000006         -3.5947660530999677E-008
  0.25700000000000006         -4.2506505033953556E-008
  0.26000000000000006         -5.0138384342758293E-008
  0.26300000000000007         -5.9024851453727283E-008
  0.26600000000000007         -6.9357250503809133E-008
  0.26900000000000007         -8.1336073937325979E-008
  0.27200000000000008         -9.5182851808988332E-008
  0.27500000000000008         -1.1116089054541264E-007
  0.27800000000000008         -1.2958576286870928E-007
  0.28100000000000008         -1.5082588753403589E-007
  0.28400000000000009         -1.7528969125027165E-007
  0.28700000000000009         -2.0340935277355257E-007
  0.29000000000000009         -2.3563877292718821E-007
  0.29300000000000009         -2.7246743287522925E-007
  0.29600000000000010         -3.1443572157182267E-007
  0.29900000000000010         -3.6214880328234583E-007
  0.30200000000000010         -4.1627778049336293E-007
  0.30499999999999999         -4.7755744248136648E-007
  0.30800000000000000         -5.4676929540115735E-007
  0.31100000000000000         -6.2475480585835142E-007
  0.31400000000000000         -7.1242210301000650E-007
  0.31700000000000000         -8.1076057044796337E-007
  0.32000000000000001         -9.2084155001225232E-007
  0.32300000000000001         -1.0438114362189979E-006
  0.32600000000000001         -1.1808752019515349E-006
  0.32900000000000001         -1.3332811067859571E-006
  0.33200000000000002         -1.5023324044314526E-006
  0.33500000000000002         -1.6893982868964927E-006
  0.33800000000000002         -1.8958863551835284E-006
  0.34100000000000003         -2.1232880803181956E-006
  0.34400000000000003         -2.3730927568306748E-006
  0.34700000000000003         -2.6468262352911055E-006
  0.35000000000000003         -2.9459899649835283E-006
  0.35300000000000004         -3.2720957693705602E-006
  0.35600000000000004         -3.6265708782421991E-006
  0.35900000000000004         -4.0108314039789976E-006
  0.36200000000000004         -4.4262599973314151E-006
  0.36500000000000005         -4.8740807220659430E-006
  0.36800000000000005         -5.3554144322997737E-006
  0.37100000000000005         -5.8712219888855962E-006
  0.37400000000000005         -6.4222852126273995E-006
  0.37700000000000006         -7.0091922906841641E-006
  0.38000000000000006         -7.6322502288722915E-006
  0.38300000000000006         -8.2915004537660837E-006
  0.38600000000000007         -8.9865955764076580E-006
  0.38900000000000007         -9.7168689406431755E-006
  0.39200000000000007         -1.0481153914170488E-005
  0.39500000000000007         -1.1278030694987665E-005
  0.39800000000000008         -1.2105389816282278E-005
  0.40100000000000008         -1.2960595692026479E-005
  0.40400000000000008         -1.3840739663243008E-005
  0.40700000000000008         -1.4742029487809954E-005
  0.41000000000000009         -1.5660084517472633E-005
  0.41300000000000009         -1.6590010119072954E-005
  0.41600000000000009         -1.7526097040799646E-005
  0.41900000000000009         -1.8462209216009972E-005
  0.42200000000000010         -1.9391372664075405E-005
  0.42500000000000010         -2.0306046454472703E-005
  0.42800000000000010         -2.1197967670324953E-005
  0.43100000000000011         -2.2058164582741683E-005
  0.43400000000000000         -2.2877056526747863E-005
  0.43700000000000000         -2.3644720872201456E-005
  0.44000000000000000         -2.4350664771444867E-005
  0.44300000000000000         -2.4984019056893006E-005
  0.44600000000000001         -2.5533492320752509E-005
  0.44900000000000001         -2.5987376540205781E-005
  0.45200000000000001         -2.6334108541689589E-005
  0.45500000000000002         -2.6561681509807103E-005
  0.45800000000000002         -2.6658572307627919E-005
  0.46100000000000002         -2.6613442791368998E-005
  0.46400000000000002         -2.6415133601858706E-005
  0.46700000000000003         -2.6052801449524280E-005
  0.47000000000000003         -2.5516442002150752E-005
  0.47300000000000003         -2.4797349097452358E-005
  0.47600000000000003         -2.3886723458906119E-005
  0.47900000000000004         -2.2777823302491817E-005
  0.48200000000000004         -2.1465202078512600E-005
  0.48500000000000004         -1.9944060993524858E-005
  0.48800000000000004         -1.8211568139703413E-005
  0.49100000000000005         -1.6266967713326237E-005
  0.49400000000000005         -1.4111232617419245E-005
  0.49700000000000005         -1.1747009713254043E-005
  0.50000000000000000         -9.1790263378092797E-006
  0.50300000000000011         -6.4143033176166948E-006
  0.50600000000000001         -3.4624063277059637E-006
  0.50900000000000012         -3.3407032049755374E-007
  0.51200000000000001          2.9569821225309871E-006
  0.51500000000000012          6.3950443403345578E-006
  0.51800000000000002          9.9621887149514878E-006
  0.52100000000000013          1.3638546095779349E-005
  0.52400000000000002          1.7402176450616878E-005
  0.52700000000000014          2.1229771694474885E-005
  0.53000000000000003          2.5096197195864891E-005
  0.53300000000000014          2.8974544302297418E-005
  0.53600000000000003          3.2837011968343645E-005
  0.53900000000000015          3.6655313498312129E-005
  0.54200000000000004          4.0399511793471830E-005
  0.54500000000000015          4.4040167773779527E-005
  0.54800000000000004          4.7547158812626973E-005
  0.55100000000000016          5.0891212328661087E-005
  0.55400000000000005          5.4042727585364694E-005
  0.55700000000000016          5.6973602753873416E-005
  0.56000000000000005          5.9656936376898057E-005
  0.56299999999999994          6.2067058817008081E-005
  0.56600000000000006          6.4180248783042993E-005
  0.56899999999999995          6.5975078188227585E-005
  0.57200000000000006          6.7432286624965381E-005
  0.57499999999999996          6.8535111531559088E-005
  0.57800000000000007          6.9269789053820618E-005
  0.58099999999999996          6.9626128654836459E-005
  0.58400000000000007          6.9596653151900257E-005
  0.58699999999999997          6.9176740144154817E-005
  0.59000000000000008          6.8366219777849730E-005
  0.59299999999999997          6.7168038422398622E-005
  0.59600000000000009          6.5588089019752611E-005
  0.59899999999999998          6.3636016567098007E-005
  0.60200000000000009          6.1325126108190961E-005
  0.60500000000000020          5.8671427405159124E-005
  0.60800000000000010          5.5694356293205062E-005
  0.61100000000000021          5.2416240752608768E-005
  0.61400000000000010          4.8861776153468670E-005
  0.61700000000000021          4.5057771117927371E-005
  0.62000000000000011          4.1033732525943039E-005
  0.62300000000000022          3.6820814237456901E-005
  0.62600000000000011          3.2451032075540159E-005
  0.62900000000000000          2.7958277678271821E-005
  0.63200000000000012          2.3376123967250610E-005
  0.63500000000000001          1.8739735803248502E-005
  0.63800000000000012          1.4083125585434820E-005
  0.64100000000000001          9.4400108166990018E-006
  0.64400000000000013          4.8441828965082375E-006
  0.64700000000000002          3.2798674997431042E-007
  0.65000000000000013         -4.0784738954701777E-006
  0.65300000000000002         -8.3457692918051924E-006
  0.65600000000000014         -1.2445821751435358E-005
  0.65900000000000003         -1.6353751717999738E-005
  0.66200000000000014         -2.0047758830902394E-005
  0.66500000000000004         -2.3506984142783155E-005
  0.66800000000000015         -2.6713823732095477E-005
  0.67100000000000004         -2.9654860491461489E-005
  0.67400000000000015         -3.2317242589192626E-005
  0.67700000000000005         -3.4691975656473144E-005
  0.68000000000000016         -3.6772468170583796E-005
  0.68300000000000005         -3.8555837466638713E-005
  0.68600000000000017         -4.0042219299479286E-005
  0.68900000000000006         -4.1232875678655782E-005
  0.69200000000000017         -4.2133000376511550E-005
  0.69500000000000006         -4.2750186771287654E-005
  0.69800000000000018         -4.3092412072226324E-005
  0.70100000000000007         -4.3170137960254245E-005
  0.70400000000000018         -4.2996972510577290E-005
  0.70700000000000007         -4.2587905952288690E-005
  0.71000000000000019         -4.1958074464638246E-005
  0.71300000000000008         -4.1124342757564811E-005
  0.71600000000000019         -4.0105091742704182E-005
  0.71900000000000008         -3.8918272468651166E-005
  0.72200000000000020         -3.7581766872780892E-005
  0.72500000000000009         -3.6114927488445672E-005
  0.72800000000000020         -3.4537324226218781E-005
  0.73100000000000009         -3.2866946255881668E-005
  0.73400000000000021         -3.1121845308522915E-005
  0.73700000000000010         -2.9320252027039833E-005
  0.74000000000000021         -2.7479233777635609E-005
  0.74300000000000010         -2.5614466235471067E-005
  0.74600000000000022         -2.3741300240438382E-005
  0.74900000000000011         -2.1874516961793937E-005
  0.75200000000000022         -2.0027078150348819E-005
  0.75500000000000012         -1.8210478744472339E-005
  0.75800000000000001         -1.6435723902932303E-005
  0.76100000000000012         -1.4712601280659422E-005
  0.76400000000000001         -1.3049178022822319E-005
  0.76700000000000013         -1.1452475512094301E-005
  0.77000000000000002         -9.9287857841362052E-006
  0.77300000000000013         -8.4831228019115533E-006
  0.77600000000000002         -7.1189823128812058E-006
  0.77900000000000014         -5.8389511124721133E-006
  0.78200000000000003         -4.6449264338424698E-006
  0.78500000000000014         -3.5377250902245046E-006
  0.78800000000000003         -2.5170623395251027E-006
  0.79100000000000015         -1.5821314922298229E-006
  0.79400000000000004         -7.3180037311848499E-007
  0.79700000000000015          3.6015566435645122E-008
  0.80000000000000004          7.2405376277763910E-007
  0.80300000000000016          1.3354069186478721E-006
  0.80600000000000005          1.8732817094740301E-006
  0.80900000000000016          2.3414422701980003E-006
  0.81200000000000006          2.7440704010764992E-006
  0.81500000000000017          3.0851247975753784E-006
  0.81800000000000006          3.3684013319061970E-006
  0.82100000000000017          3.5983164775030540E-006
  0.82400000000000007          3.7796373833758886E-006
  0.82700000000000018          3.9164257770314030E-006
  0.83000000000000007          4.0124890569385195E-006
  0.83300000000000018          4.0720977240057405E-006
  0.83600000000000008          4.0992347539738023E-006
  0.83900000000000019          4.0970562083159506E-006
  0.84200000000000008          4.0689862339956286E-006
  0.84500000000000020          4.0191392953033895E-006
  0.84800000000000009          3.9507016254768579E-006
  0.85100000000000020          3.8659840602484594E-006
  0.85400000000000009          3.7678125494791964E-006
  0.85700000000000021          3.6590029942000290E-006
  0.86000000000000010          3.5412844074329145E-006
  0.86300000000000021          3.4163339678157290E-006
  0.86600000000000010          3.2867519796846326E-006
  0.86900000000000022          3.1544557292327234E-006
  0.87200000000000011          3.0201853772027387E-006
  0.87500000000000022          2.8850535466127800E-006
  0.87800000000000011          2.7507080983052386E-006
  0.88100000000000001          2.6178492619707921E-006
  0.88400000000000012          2.4867296192338025E-006
  0.88700000000000001          2.3585444709688508E-006
  0.89000000000000012          2.2343468405543268E-006
  0.89300000000000002          2.1138481751308098E-006
  0.89600000000000013          1.9970232202771285E-006
  0.89900000000000002          1.8847269298609087E-006
  0.90200000000000014          1.7771925194885302E-006
  0.90500000000000003          1.6739060248753109E-006
  0.90800000000000014          1.5751871757575174E-006
  0.91100000000000003          1.4816326172705588E-006
  0.91400000000000015          1.3927287269771008E-006
  0.91700000000000004          1.3078590561694942E-006
  0.92000000000000015          1.2274361064048256E-006
  0.92300000000000004          1.1516001050463534E-006
  0.92600000000000016          1.0796496418195109E-006
  0.92900000000000005          1.0114145426894096E-006
  0.93200000000000016          9.4734392192817256E-007
  0.93500000000000005          8.8709028826716083E-007
  0.93800000000000017          8.2993643713245554E-007
  0.94100000000000006          7.7598173260766882E-007
  0.94400000000000017          7.2544693047563013E-007
  0.94700000000000006          6.7778998378943330E-007
  0.95000000000000018          6.3266256115918981E-007
  0.95300000000000007          5.9037854833152319E-007
  0.95600000000000018          5.5085937429859034E-007
  0.95900000000000007          5.1350804727193898E-007
  0.96200000000000019          4.7823512219425405E-007
  0.96500000000000008          4.4529058920411245E-007
  0.96800000000000019          4.1442089746033059E-007
  0.97100000000000009          3.8526228167483381E-007
  0.97400000000000020          3.5793530996823205E-007
  0.97700000000000009          3.3250566141059116E-007
  0.98000000000000020          3.0862394996886694E-007
  0.98300000000000010          2.8612723943294143E-007
  0.98600000000000021          2.6521825216035588E-007
  0.98900000000000010          2.4589117034149615E-007
  0.99200000000000021          2.2787074614423123E-007
  0.99500000000000011          2.1105134397536683E-007
  0.99800000000000022          1.9547200131212907E-007
   1.0010000000000001          1.8102087739314523E-007
   1.0040000000000002          1.6756118846106070E-007
   1.0070000000000001          1.5516298726170703E-007
   1.0100000000000000          1.4391550348164017E-007
   1.0130000000000001          1.3367762527655880E-007
   1.0160000000000000          1.2422017964485047E-007
   1.0190000000000001          1.1549181803292096E-007
   1.0220000000000000          1.0755506770819603E-007
   1.0250000000000001          1.0036454713884311E-007
   1.0280000000000000          9.3834398803107863E-008
   1.0310000000000001          8.7991613288086596E-008
   1.0340000000000000          8.2791301399929197E-008
   1.0370000000000001          7.8009080351935168E-008
   1.0400000000000000          7.3543608673122890E-008
   1.0430000000000001          6.9536915239483576E-008
   1.0460000000000000          6.6022171302334718E-008
   1.0490000000000002          6.2821378416459391E-008
   1.0520000000000000          5.9860129623709243E-008
   1.0550000000000002          5.7130816087830744E-008
   1.0580000000000001          5.4475569634553623E-008
   1.0610000000000002          5.1835826492846272E-008
   1.0640000000000001          4.9397942156179692E-008
   1.0670000000000002          4.7197968659636893E-008
   1.0700000000000001          4.5045911902448979E-008
   1.0730000000000002          4.2888031435316185E-008
   1.0760000000000001          4.0724652002906465E-008
   1.0790000000000002          3.8392072434286869E-008
   1.0820000000000001          3.5897562401995690E-008
   1.0850000000000002          3.3488232130534907E-008
   1.0880000000000001          3.1117685473170018E-008
   1.0910000000000002          2.8561526836733294E-008
   1.0940000000000001          2.5937246777839105E-008
   1.0970000000000002          2.3347175479262409E-008
