 -0.39999999999999997          0.0000000000000000     
 -0.39699999999999996          0.0000000000000000     
 -0.39399999999999996          0.0000000000000000     
 -0.39099999999999996          0.0000000000000000     
 -0.38799999999999996          0.0000000000000000     
 -0.38499999999999995          0.0000000000000000     
 -0.38199999999999995          0.0000000000000000     
 -0.37899999999999995          0.0000000000000000     
 -0.37599999999999995          0.0000000000000000     
 -0.37299999999999994          0.0000000000000000     
 -0.37000000000000000          0.0000000000000000     
 -0.36699999999999999          0.0000000000000000     
 -0.36399999999999999          0.0000000000000000     
 -0.36099999999999999          0.0000000000000000     
 -0.35799999999999998          0.0000000000000000     
 -0.35499999999999998          0.0000000000000000     
 -0.35199999999999998          0.0000000000000000     
 -0.34899999999999998          0.0000000000000000     
 -0.34599999999999997          0.0000000000000000     
 -0.34299999999999997          0.0000000000000000     
 -0.33999999999999997          0.0000000000000000     
 -0.33699999999999997          0.0000000000000000     
 -0.33399999999999996          0.0000000000000000     
 -0.33099999999999996          0.0000000000000000     
 -0.32799999999999996          0.0000000000000000     
 -0.32499999999999996          0.0000000000000000     
 -0.32199999999999995          0.0000000000000000     
 -0.31899999999999995          0.0000000000000000     
 -0.31599999999999995          0.0000000000000000     
 -0.31299999999999994          0.0000000000000000     
 -0.30999999999999994          0.0000000000000000     
 -0.30699999999999994          0.0000000000000000     
 -0.30399999999999994          0.0000000000000000     
 -0.30099999999999993          0.0000000000000000     
 -0.29799999999999993          6.9334982689227116E-040
 -0.29499999999999998         -1.9841717445909176E-039
 -0.29199999999999998         -7.2368406520271506E-040
 -0.28899999999999998          2.1789152466205199E-038
 -0.28599999999999998         -6.4142535892927864E-038
 -0.28299999999999997         -4.5256746436781747E-038
 -0.27999999999999997          5.6858372812084345E-037
 -0.27699999999999997         -6.4676671987179002E-037
 -0.27399999999999997         -2.9256273795547939E-036
 -0.27099999999999996          8.6527632737845798E-036
 -0.26799999999999996          6.9278900132301410E-036
 -0.26499999999999996         -6.1521172196370436E-035
 -0.26199999999999996          2.9074712974530320E-035
 -0.25899999999999995          3.1681351855120432E-034
 -0.25599999999999995         -4.5628607805929957E-034
 -0.25300000000000000         -1.2630549862782146E-033
 -0.24999999999999997          3.2769783730303337E-033
 -0.24699999999999997          3.8260202196425694E-033
 -0.24399999999999997         -1.7758988817325047E-032
 -0.24099999999999996         -7.2396454177322500E-033
 -0.23799999999999996          8.1185045833766263E-032
 -0.23499999999999996         -5.5824152056919376E-033
 -0.23199999999999996         -3.2893991513097275E-031
 -0.22899999999999995          1.3264330221528532E-031
 -0.22599999999999995          1.2163217128066443E-030
 -0.22299999999999998         -7.7835474330307808E-031
 -0.21999999999999997         -4.1867751676136413E-030
 -0.21699999999999997          3.3005042138069539E-030
 -0.21399999999999997          1.3595011268982740E-029
 -0.21099999999999997         -1.1486137749616273E-029
 -0.20799999999999996         -4.1924845628701609E-029
 -0.20499999999999996          3.3765201423998773E-029
 -0.20199999999999996          1.2267472796663660E-028
 -0.19899999999999995         -8.2491558071279326E-029
 -0.19599999999999995         -3.3724043163968921E-028
 -0.19299999999999995          1.5390692187512069E-028
 -0.18999999999999997          8.5311541356265333E-028
 -0.18699999999999997         -1.4336907281266122E-028
 -0.18399999999999997         -1.9131134253324588E-027
 -0.18099999999999997         -3.7542638038445544E-028
 -0.17799999999999996          3.5260164069195129E-027
 -0.17499999999999996          2.4524613126538762E-027
 -0.17199999999999996         -4.2331607101903696E-027
 -0.16899999999999996         -7.3311374897015863E-027
 -0.16599999999999995         -1.7961632877347618E-027
 -0.16299999999999995          1.2288565374234734E-026
 -0.15999999999999998          2.7722253383628427E-026
 -0.15699999999999997          3.2012857577147694E-027
 -0.15399999999999997         -8.5268825568063851E-026
 -0.15099999999999997         -1.0189595098252782E-025
 -0.14799999999999996          1.3165241495429727E-025
 -0.14499999999999996          3.8413489045709252E-025
 -0.14199999999999996          6.1991615718621373E-026
 -0.13899999999999996         -8.0523567237103106E-025
 -0.13599999999999995         -1.0112613054245237E-024
 -0.13299999999999995          5.7737762330311261E-025
 -0.12999999999999995          2.9814646264010711E-024
 -0.12699999999999995          2.6147934933273650E-024
 -0.12399999999999994         -3.5800998460758700E-024
 -0.12099999999999994         -1.1258991822365494E-023
 -0.11799999999999994         -6.3397710120092912E-024
 -0.11499999999999994          1.8896773653958784E-023
 -0.11199999999999993          3.9860538828701687E-023
 -0.10899999999999999          8.2847266902158736E-024
 -0.10599999999999998         -8.0550768790567921E-023
 -0.10299999999999998         -1.2774367220499847E-022
  -9.9999999999999978E-002     6.7255772519501090E-024
  -9.6999999999999975E-002     2.9987152396755745E-022
  -9.3999999999999972E-002     4.1117289637692295E-022
  -9.0999999999999970E-002    -9.5085673098061139E-023
  -8.7999999999999967E-002    -1.0748724061185494E-021
  -8.4999999999999964E-002    -1.3395098145834620E-021
  -8.1999999999999962E-002     4.7767181984073624E-022
  -7.8999999999999959E-002     3.6959616128328798E-021
  -7.5999999999999956E-002     4.3737667066441458E-021
  -7.2999999999999954E-002    -1.6913747868944218E-021
  -6.9999999999999951E-002    -1.2167567316217141E-020
  -6.6999999999999948E-002    -1.4617627970403912E-020
  -6.3999999999999946E-002     4.4718756465260633E-021
  -6.0999999999999943E-002     3.8713580914231672E-020
  -5.7999999999999940E-002     4.9646603185298415E-020
  -5.4999999999999938E-002    -7.1749241727171719E-021
  -5.1999999999999935E-002    -1.1784430637949081E-019
  -4.8999999999999932E-002    -1.6807244386118408E-019
  -4.5999999999999985E-002    -1.2190621000676649E-020
  -4.2999999999999983E-002     3.3684515878441419E-019
  -3.9999999999999980E-002     5.5825480635024025E-019
  -3.6999999999999977E-002     1.7979658570979554E-019
  -3.3999999999999975E-002    -8.7925037130483914E-019
  -3.0999999999999972E-002    -1.7826202050776507E-018
  -2.7999999999999969E-002    -1.0500733715963753E-018
  -2.4999999999999967E-002     1.9705856109663429E-018
  -2.1999999999999964E-002     5.3452428445666379E-018
  -1.8999999999999961E-002     4.6929729766978582E-018
  -1.5999999999999959E-002    -3.1533569338810454E-018
  -1.2999999999999956E-002    -1.4628696917267725E-017
  -9.9999999999999534E-003    -1.7769552149974464E-017
  -6.9999999999999507E-003    -2.0426805569678077E-019
  -3.9999999999999480E-003     3.4883351211839704E-017
  -9.9999999999994538E-004     5.8418618061497213E-017
   2.0000000000000573E-003     2.9092794596579372E-017
   5.0000000000000600E-003    -6.5163415887513246E-017
   8.0000000000000626E-003    -1.6574601525801193E-016
   1.1000000000000065E-002    -1.5346017411307281E-016
   1.4000000000000068E-002     5.8393800463652903E-017
   1.7000000000000015E-002     3.9096005933595280E-016
   2.0000000000000018E-002     5.5286158975406313E-016
   2.3000000000000020E-002     2.0517660327710183E-016
   2.6000000000000023E-002    -6.8335247985298896E-016
   2.9000000000000026E-002    -1.5487865779483788E-015
   3.2000000000000028E-002    -1.3916856239677080E-015
   3.5000000000000031E-002     4.5065440770130876E-016
   3.8000000000000034E-002     3.3094416708149549E-015
   4.1000000000000036E-002     4.8871641456227745E-015
   4.4000000000000039E-002     2.4901475333099536E-015
   4.7000000000000042E-002    -4.4147244970110242E-015
   5.0000000000000044E-002    -1.2059450860344621E-014
   5.3000000000000047E-002    -1.3153113574149242E-014
   5.6000000000000050E-002    -1.7838258113658405E-015
   5.9000000000000052E-002     1.9710082880510778E-014
   6.2000000000000055E-002     3.7408216865791751E-014
   6.5000000000000058E-002     3.1560089375007684E-014
   6.8000000000000060E-002    -8.3523761391556965E-015
   7.1000000000000063E-002    -6.7742065307453209E-014
   7.4000000000000066E-002    -1.0457669030812419E-013
   7.7000000000000068E-002    -7.0799910203660172E-014
   8.0000000000000016E-002     4.8041885822942244E-014
   8.3000000000000018E-002     1.9996861224952824E-013
   8.6000000000000021E-002     2.7321973419146180E-013
   8.9000000000000024E-002     1.5821448094307300E-013
   9.2000000000000026E-002    -1.5845887740755011E-013
   9.5000000000000029E-002    -5.3017263049830553E-013
   9.8000000000000032E-002    -6.8461169391019467E-013
  0.10100000000000003         -3.7741606822325278E-013
  0.10400000000000004          3.9948676375430994E-013
  0.10700000000000004          1.2923113698080106E-012
  0.11000000000000004          1.6776878051250100E-012
  0.11300000000000004          1.0014769115856758E-012
  0.11600000000000005         -7.7860388115142066E-013
  0.11900000000000005         -2.9236692583864165E-012
  0.12200000000000005         -4.0815243343957934E-012
  0.12500000000000006         -2.9518200673804535E-012
  0.12800000000000006          8.0846556767303321E-013
  0.13100000000000006          5.9486127136008413E-012
  0.13400000000000006          9.7663272957972327E-012
  0.13700000000000007          9.2131571110695990E-012
  0.14000000000000007          2.6114671328625463E-012
  0.14300000000000007         -8.8394961510067825E-012
  0.14600000000000007         -2.0698706910774108E-011
  0.14900000000000008         -2.6589940590684996E-011
  0.15200000000000008         -2.0923583241837100E-011
  0.15500000000000008         -1.9694109517673424E-012
  0.15800000000000008          2.6179435002055389E-011
  0.16100000000000009          5.3924403975409118E-011
  0.16400000000000009          6.9027029400773379E-011
  0.16700000000000009          6.1149342994238654E-011
  0.17000000000000010          2.6372724977371306E-011
  0.17300000000000010         -3.0112431213433020E-011
  0.17600000000000010         -9.4282656988479221E-011
  0.17899999999999999         -1.4654284578595031E-010
  0.18200000000000000         -1.6694449187492799E-010
  0.18500000000000000         -1.4079468638434421E-010
  0.18800000000000000         -6.3178732398290076E-011
  0.19100000000000000          5.8578360353003194E-011
  0.19400000000000001          2.0491845579974000E-010
  0.19700000000000001          3.4651527402470164E-010
  0.20000000000000001          4.4888104145720783E-010
  0.20300000000000001          4.7840102323520762E-010
  0.20600000000000002          4.0854278217599481E-010
  0.20900000000000002          2.2454259242058800E-010
  0.21200000000000002         -7.5054780123257054E-011
  0.21500000000000002         -4.8060540675472487E-010
  0.21800000000000003         -9.7643010933315013E-010
  0.22100000000000003         -1.5464407098668669E-009
  0.22400000000000003         -2.1780007420132775E-009
  0.22700000000000004         -2.8629546456289876E-009
  0.23000000000000004         -3.5969183662242274E-009
  0.23300000000000004         -4.3793829078459970E-009
  0.23600000000000004         -5.2166912197050946E-009
  0.23900000000000005         -6.1276760456761694E-009
  0.24200000000000005         -7.1488888839167694E-009
  0.24500000000000005         -8.3359512756528208E-009
  0.24800000000000005         -9.7586442242711673E-009
  0.25100000000000006         -1.1492050328037953E-008
  0.25400000000000006         -1.3607946809433528E-008
  0.25700000000000006         -1.6172173276377004E-008
  0.26000000000000006         -1.9249348066738124E-008
  0.26300000000000007         -2.2911989249076510E-008
  0.26600000000000007         -2.7248308307860976E-008
  0.26900000000000007         -3.2364532941324167E-008
  0.27200000000000008         -3.8381734918841602E-008
  0.27500000000000008         -4.5430159912528630E-008
  0.27800000000000008         -5.3649163603730716E-008
  0.28100000000000008         -6.3194232123105821E-008
  0.28400000000000009         -7.4247121972703022E-008
  0.28700000000000009         -8.7025498043800610E-008
  0.29000000000000009         -1.0178619562688239E-007
  0.29300000000000009         -1.1882366521707416E-007
  0.29600000000000010         -1.3846514676185824E-007
  0.29900000000000010         -1.6106873187235746E-007
  0.30200000000000010         -1.8702957732445147E-007
  0.30499999999999999         -2.1678603689849697E-007
  0.30800000000000000         -2.5082570059827287E-007
  0.31100000000000000         -2.8968655069136457E-007
  0.31400000000000000         -3.3395328405119589E-007
  0.31700000000000000         -3.8426203398230479E-007
  0.32000000000000001         -4.4129412064847706E-007
  0.32300000000000001         -5.0579543668883679E-007
  0.32600000000000001         -5.7857786225482627E-007
  0.32900000000000001         -6.6052633667644379E-007
  0.33200000000000002         -7.5259863658746185E-007
  0.33500000000000002         -8.5581237266776871E-007
  0.33800000000000002         -9.7124929042595231E-007
  0.34100000000000003         -1.1000527838463496E-006
  0.34400000000000003         -1.2434380616167111E-006
  0.34700000000000003         -1.4026742970829393E-006
  0.35000000000000003         -1.5791131322986728E-006
  0.35300000000000004         -1.7741425163323782E-006
  0.35600000000000004         -1.9892078071737663E-006
  0.35900000000000004         -2.2257812334344719E-006
  0.36200000000000004         -2.4853466654048381E-006
  0.36500000000000005         -2.7694112047441465E-006
  0.36800000000000005         -3.0794838934640570E-006
  0.37100000000000005         -3.4170754279549159E-006
  0.37400000000000005         -3.7835715035262236E-006
  0.37700000000000006         -4.1803732498987491E-006
  0.38000000000000006         -4.6088160506153451E-006
  0.38300000000000006         -5.0700473762093989E-006
  0.38600000000000007         -5.5651098512354850E-006
  0.38900000000000007         -6.0949020453518892E-006
  0.39200000000000007         -6.6601214055996473E-006
  0.39500000000000007         -7.2611520765982520E-006
  0.39800000000000008         -7.8982132904976037E-006
  0.40100000000000008         -8.5711214303315456E-006
  0.40400000000000008         -9.2794423356142585E-006
  0.40700000000000008         -1.0022261529722293E-005
  0.41000000000000009         -1.0798336355594340E-005
  0.41300000000000009         -1.1605813716026480E-005
  0.41600000000000009         -1.2442405972232198E-005
  0.41900000000000009         -1.3305308354361149E-005
  0.42200000000000010         -1.4191215642654419E-005
  0.42500000000000010         -1.5096069672634391E-005
  0.42800000000000010         -1.6015320348992340E-005
  0.43100000000000011         -1.6943557861891122E-005
  0.43400000000000000         -1.7875009218523332E-005
  0.43700000000000000         -1.8802956554891293E-005
  0.44000000000000000         -1.9720374219764664E-005
  0.44300000000000000         -2.0619170267788784E-005
  0.44600000000000001         -2.1490723199590433E-005
  0.44900000000000001         -2.2326091489053786E-005
  0.45200000000000001         -2.3115454488389795E-005
  0.45500000000000002         -2.3848356628874001E-005
  0.45800000000000002         -2.4514278812901565E-005
  0.46100000000000002         -2.5101948584813982E-005
  0.46400000000000002         -2.5600176260545492E-005
  0.46700000000000003         -2.5997315230510456E-005
  0.47000000000000003         -2.6281451329623558E-005
  0.47300000000000003         -2.6441125231003102E-005
  0.47600000000000003         -2.6464301344068208E-005
  0.47900000000000004         -2.6340232739785810E-005
  0.48200000000000004         -2.6057322735142137E-005
  0.48500000000000004         -2.5605891982468874E-005
  0.48800000000000004         -2.4976250005255457E-005
  0.49100000000000005         -2.4159913496912334E-005
  0.49400000000000005         -2.3148498486005748E-005
  0.49700000000000005         -2.1936565727385973E-005
  0.50000000000000000         -2.0518317895256040E-005
  0.50300000000000011         -1.8890277106385391E-005
  0.50600000000000001         -1.7050489946068031E-005
  0.50900000000000012         -1.4999616155043806E-005
  0.51200000000000001         -1.2739212747535950E-005
  0.51500000000000012         -1.0272525079473410E-005
  0.51800000000000002         -7.6057660009079122E-006
  0.52100000000000013         -4.7469834476115055E-006
  0.52400000000000002         -1.7067574990337331E-006
  0.52700000000000014          1.5029929242087924E-006
  0.53000000000000003          4.8670241648452704E-006
  0.53300000000000014          8.3684653554317168E-006
  0.53600000000000003          1.1989177722122063E-005
  0.53900000000000015          1.5708092477600724E-005
  0.54200000000000004          1.9501793687990861E-005
  0.54500000000000015          2.3346316176827080E-005
  0.54800000000000004          2.7215942874592963E-005
  0.55100000000000016          3.1082717256864787E-005
  0.55400000000000005          3.4918559451769911E-005
  0.55700000000000016          3.8694937955668679E-005
  0.56000000000000005          4.2381702417317128E-005
  0.56299999999999994          4.5948841028743089E-005
  0.56600000000000006          4.9366370330753349E-005
  0.56899999999999995          5.2605270830415937E-005
  0.57200000000000006          5.5636488311824218E-005
  0.57499999999999996          5.8432364473060577E-005
  0.57800000000000007          6.0966856720602648E-005
  0.58099999999999996          6.3215298664520724E-005
  0.58400000000000007          6.5154509719719781E-005
  0.58699999999999997          6.6764118470738075E-005
  0.59000000000000008          6.8026695332736744E-005
  0.59299999999999997          6.8926908439925292E-005
  0.59600000000000009          6.9452339821083340E-005
  0.59899999999999998          6.9594543467966808E-005
  0.60200000000000009          6.9347640280209289E-005
  0.60500000000000020          6.8709187467695578E-005
  0.60800000000000010          6.7679946208578002E-005
  0.61100000000000021          6.6265208973361459E-005
  0.61400000000000010          6.4472696217985419E-005
  0.61700000000000021          6.2314036493515810E-005
  0.62000000000000011          5.9804275901313513E-005
  0.62300000000000022          5.6961071031599668E-005
  0.62600000000000011          5.3805383332500363E-005
  0.62900000000000000          5.0360347263658190E-005
  0.63200000000000012          4.6652734060837194E-005
  0.63500000000000001          4.2710799154138802E-005
  0.63800000000000012          3.8565051435614171E-005
  0.64100000000000001          3.4247300008503174E-005
  0.64400000000000013          2.9790190130039680E-005
  0.64700000000000002          2.5228318822419159E-005
  0.65000000000000013          2.0595247593202236E-005
  0.65300000000000002          1.5926336075489486E-005
  0.65600000000000014          1.1255597635474096E-005
  0.65900000000000003          6.6176431413588689E-006
  0.66200000000000014          2.0448691847087562E-006
  0.66500000000000004         -2.4312743268780193E-006
  0.66800000000000015         -6.7801268587806649E-006
  0.67100000000000004         -1.0973815618485512E-005
  0.67400000000000015         -1.4986152995154445E-005
  0.67700000000000005         -1.8793187715820221E-005
  0.68000000000000016         -2.2372845013642526E-005
  0.68300000000000005         -2.5706645430165179E-005
  0.68600000000000017         -2.8778798684666348E-005
  0.68900000000000006         -3.1575726905411726E-005
  0.69200000000000017         -3.4086982616298928E-005
  0.69500000000000006         -3.6305625933012147E-005
  0.69800000000000018         -3.8226964925396471E-005
  0.70100000000000007         -3.9848882964508578E-005
  0.70400000000000018         -4.1172082353876111E-005
  0.70700000000000007         -4.2200450519270899E-005
  0.71000000000000019         -4.2939546532100585E-005
  0.71300000000000008         -4.3397713328140112E-005
  0.71600000000000019         -4.3585223867729954E-005
  0.71900000000000008         -4.3514522483801467E-005
  0.72200000000000020         -4.3199196904238205E-005
  0.72500000000000009         -4.2654347832130037E-005
  0.72800000000000020         -4.1896739893481376E-005
  0.73100000000000009         -4.0943772567262148E-005
  0.73400000000000021         -3.9813334455294561E-005
  0.73700000000000010         -3.8524006702227056E-005
  0.74000000000000021         -3.7095139425332522E-005
  0.74300000000000010         -3.5545638423670171E-005
  0.74600000000000022         -3.3894396228310346E-005
  0.74900000000000011         -3.2160245106195733E-005
  0.75200000000000022         -3.0361400969176396E-005
  0.75500000000000012         -2.8515055634262056E-005
  0.75800000000000001         -2.6637752781626235E-005
  0.76100000000000012         -2.4745429051652067E-005
  0.76400000000000001         -2.2852841520941612E-005
  0.76700000000000013         -2.0973736344599228E-005
  0.77000000000000002         -1.9121000636670440E-005
  0.77300000000000013         -1.7306258357796494E-005
  0.77600000000000002         -1.5539429320931919E-005
  0.77900000000000014         -1.3829245256377252E-005
  0.78200000000000003         -1.2183518645951556E-005
  0.78500000000000014         -1.0608805358560532E-005
  0.78800000000000003         -9.1104004890787669E-006
  0.79100000000000015         -7.6929351796418556E-006
  0.79400000000000004         -6.3597955848180472E-006
  0.79700000000000015         -5.1129767917388696E-006
  0.80000000000000004         -3.9533538911651611E-006
  0.80300000000000016         -2.8813026062668325E-006
  0.80600000000000005         -1.8964865776896901E-006
  0.80900000000000016         -9.9747957615321683E-007
  0.81200000000000006         -1.8287951902736987E-007
  0.81500000000000017          5.4951609779666883E-007
  0.81800000000000006          1.2028262494392353E-006
  0.82100000000000017          1.7805350161065094E-006
  0.82400000000000007          2.2861935453618847E-006
  0.82700000000000018          2.7236221424125662E-006
  0.83000000000000007          3.0969756763057895E-006
  0.83300000000000018          3.4102998040145731E-006
  0.83600000000000008          3.6675113160757840E-006
  0.83900000000000019          3.8731402958272170E-006
  0.84200000000000008          4.0317095555534487E-006
  0.84500000000000020          4.1473085401137474E-006
  0.84800000000000009          4.2240154031930589E-006
  0.85100000000000020          4.2659989308807072E-006
  0.85400000000000009          4.2769379440538654E-006
  0.85700000000000021          4.2601475712921137E-006
  0.86000000000000010          4.2192102451447435E-006
  0.86300000000000021          4.1575373988536033E-006
  0.86600000000000010          4.0779742360838401E-006
  0.86900000000000022          3.9832280025319053E-006
  0.87200000000000011          3.8762476155633606E-006
  0.87500000000000022          3.7594205162908197E-006
  0.87800000000000011          3.6345772382949603E-006
  0.88100000000000001          3.5037099636663636E-006
  0.88400000000000012          3.3686773277623107E-006
  0.88700000000000001          3.2307227166893672E-006
  0.89000000000000012          3.0911008598807849E-006
  0.89300000000000002          2.9514088463600550E-006
  0.89600000000000013          2.8128050825702438E-006
  0.89900000000000002          2.6758743731136729E-006
  0.90200000000000014          2.5413908762011079E-006
  0.90500000000000003          2.4101220696795389E-006
  0.90800000000000014          2.2822605968254755E-006
  0.91100000000000003          2.1579882854484553E-006
  0.91400000000000015          2.0380196729542648E-006
  0.91700000000000004          1.9228074417270345E-006
  0.92000000000000015          1.8121691386801495E-006
  0.92300000000000004          1.7061985101546455E-006
  0.92600000000000016          1.6052253239737738E-006
  0.92900000000000005          1.5089999236700231E-006
  0.93200000000000016          1.4171702424803753E-006
  0.93500000000000005          1.3300269750656523E-006
  0.93800000000000017          1.2477726079952362E-006
  0.94100000000000006          1.1699131328678750E-006
  0.94400000000000017          1.0962026881421145E-006
  0.94700000000000006          1.0268730517266582E-006
  0.95000000000000018          9.6168336885795698E-007
  0.95300000000000007          9.0007481611772211E-007
  0.95600000000000018          8.4213385859533219E-007
  0.95900000000000007          7.8808552128640917E-007
  0.96200000000000019          7.3745326314694625E-007
  0.96500000000000008          6.8977044031806455E-007
  0.96800000000000019          6.4523095241530547E-007
  0.97100000000000009          6.0381421371743017E-007
  0.97400000000000020          5.6497236140163401E-007
  0.97700000000000009          5.2860827554486724E-007
  0.98000000000000020          4.9502812826479583E-007
  0.98300000000000010          4.6394238010397977E-007
  0.98600000000000021          4.3476452935064202E-007
  0.98900000000000010          4.0753637309903645E-007
  0.99200000000000021          3.8245412727004271E-007
  0.99500000000000011          3.5915346721027986E-007
  0.99800000000000022          3.3734419168196045E-007
   1.0010000000000001          3.1728314396093777E-007
   1.0040000000000002          2.9897871771020113E-007
   1.0070000000000001          2.8190034295213896E-007
   1.0100000000000000          2.6584969726910975E-007
   1.0130000000000001          2.5110581737664458E-007
   1.0160000000000000          2.3759088552832466E-007
   1.0190000000000001          2.2488217319095339E-007
   1.0220000000000000          2.1297660644752728E-007
   1.0250000000000001          2.0210783321629190E-007
   1.0280000000000000          1.9202701535908872E-007
   1.0310000000000001          1.8234574113658875E-007
   1.0340000000000000          1.7322945430920594E-007
   1.0370000000000001          1.6491999937233402E-007
   1.0400000000000000          1.5707414606239702E-007
   1.0430000000000001          1.4934244926476802E-007
   1.0460000000000000          1.4197169420040640E-007
   1.0490000000000002          1.3512436913224172E-007
   1.0520000000000000          1.2840976113769426E-007
   1.0550000000000002          1.2169813443159790E-007
   1.0580000000000001          1.1540872755623641E-007
   1.0610000000000002          1.0951893129135612E-007
   1.0640000000000001          1.0346295435178159E-007
   1.0670000000000002          9.7256695004618792E-008
   1.0700000000000001          9.1402827640824188E-008
   1.0730000000000002          8.5750606486577876E-008
   1.0760000000000001          7.9844080453054441E-008
   1.0790000000000002          7.3997168487331960E-008
   1.0820000000000001          6.8602803309075277E-008
   1.0850000000000002          6.3184671754949617E-008
   1.0880000000000001          5.7418337667679382E-008
   1.0910000000000002          5.1895468871242935E-008
   1.0940000000000001          4.6861461536535779E-008
   1.0970000000000002          4.1713949560938661E-008
