 -0.39999999999999997          0.0000000000000000     
 -0.39699999999999996          0.0000000000000000     
 -0.39399999999999996          0.0000000000000000     
 -0.39099999999999996          0.0000000000000000     
 -0.38799999999999996          0.0000000000000000     
 -0.38499999999999995          0.0000000000000000     
 -0.38199999999999995          0.0000000000000000     
 -0.37899999999999995          0.0000000000000000     
 -0.37599999999999995          0.0000000000000000     
 -0.37299999999999994          0.0000000000000000     
 -0.37000000000000000          0.0000000000000000     
 -0.36699999999999999          0.0000000000000000     
 -0.36399999999999999          0.0000000000000000     
 -0.36099999999999999          0.0000000000000000     
 -0.35799999999999998          0.0000000000000000     
 -0.35499999999999998          0.0000000000000000     
 -0.35199999999999998          0.0000000000000000     
 -0.34899999999999998          0.0000000000000000     
 -0.34599999999999997          0.0000000000000000     
 -0.34299999999999997          0.0000000000000000     
 -0.33999999999999997          0.0000000000000000     
 -0.33699999999999997          0.0000000000000000     
 -0.33399999999999996          0.0000000000000000     
 -0.33099999999999996          0.0000000000000000     
 -0.32799999999999996          0.0000000000000000     
 -0.32499999999999996          1.0463089120497866E-041
 -0.32199999999999995         -5.2728169291909989E-042
 -0.31899999999999995         -1.0185546960689470E-039
 -0.31599999999999995          3.8310617671509278E-039
 -0.31299999999999994          2.3076404478812665E-039
 -0.30999999999999994         -5.2839249416496616E-038
 -0.30699999999999994          7.3802390358270441E-038
 -0.30399999999999994          4.2697732803119290E-037
 -0.30099999999999993         -1.6441900176765265E-036
 -0.29799999999999993         -8.2157173893511606E-037
 -0.29499999999999998          1.5653711002529954E-035
 -0.29199999999999998         -1.7033582511880183E-035
 -0.28899999999999998         -9.7507399332978958E-035
 -0.28599999999999998          2.4229795953514002E-034
 -0.28299999999999997          4.1350888526193921E-034
 -0.27999999999999997         -1.9947927269587655E-033
 -0.27699999999999997         -8.9329662218977695E-034
 -0.27399999999999997          1.2652593097279526E-032
 -0.27099999999999996         -3.2985382627519014E-033
 -0.26799999999999996         -6.7745721910154439E-032
 -0.26499999999999996          5.1710424158052693E-032
 -0.26199999999999996          3.2147692611496359E-031
 -0.25899999999999995         -3.7074424905521825E-031
 -0.25599999999999995         -1.3980833606827861E-030
 -0.25300000000000000          2.0248891775780664E-030
 -0.24999999999999997          5.7178474413708893E-030
 -0.24699999999999997         -9.3377809337963500E-030
 -0.24399999999999997         -2.2412891585061894E-029
 -0.24099999999999996          3.7716634319460761E-029
 -0.23799999999999996          8.5087358524777297E-029
 -0.23499999999999996         -1.3499623402343323E-028
 -0.23199999999999996         -3.1297734356661874E-028
 -0.22899999999999995          4.2594003542962064E-028
 -0.22599999999999995          1.1056345256118221E-027
 -0.22299999999999998         -1.1542399703703619E-027
 -0.21999999999999997         -3.6938998440861072E-027
 -0.21699999999999997          2.4968780017273883E-027
 -0.21399999999999997          1.1444945792254165E-026
 -0.21099999999999997         -3.2380537080190953E-027
 -0.20799999999999996         -3.2103318777788142E-026
 -0.20499999999999996         -4.2125641726194536E-027
 -0.20199999999999996          7.8860266691155380E-026
 -0.19899999999999995          4.6731471083998468E-026
 -0.19599999999999995         -1.6005583446293184E-025
 -0.19299999999999995         -1.9097369311559396E-025
 -0.18999999999999997          2.3134258510362730E-025
 -0.18699999999999997          5.3985125462046762E-025
 -0.18399999999999997         -8.0423331500335926E-026
 -0.18099999999999997         -1.0875552349143134E-024
 -0.17799999999999996         -7.8662725587935279E-025
 -0.17499999999999996          1.2218690534694379E-024
 -0.17199999999999996          2.8122161567380073E-024
 -0.16899999999999996          1.0771839972884033E-024
 -0.16599999999999995         -4.5562682207322120E-024
 -0.16299999999999995         -8.8067997608382074E-024
 -0.15999999999999998         -1.1533739642585966E-024
 -0.15699999999999997          1.9755370827409832E-023
 -0.15399999999999997          2.8051001733804183E-023
 -0.15099999999999997         -1.0571047241014193E-023
 -0.14799999999999996         -7.6210893008937763E-023
 -0.14499999999999996         -7.2573936180209052E-023
 -0.14199999999999996          7.0882968972481364E-023
 -0.13899999999999996          2.4791006989695959E-022
 -0.13599999999999995          1.8503774411808645E-022
 -0.13299999999999995         -2.7366696561855559E-022
 -0.12999999999999995         -7.8900836306082788E-022
 -0.12699999999999995         -5.4074676140179259E-022
 -0.12399999999999994          9.4020767330844158E-022
 -0.12099999999999994          2.5541442888840929E-021
 -0.11799999999999994          1.6964752764522038E-021
 -0.11499999999999994         -3.0241186421150517E-021
 -0.11199999999999993         -8.1254966837942611E-021
 -0.10899999999999999         -5.6861174623330064E-021
 -0.10599999999999998          8.7076850448704248E-021
 -0.10299999999999998          2.5338688130634668E-020
  -9.9999999999999978E-002     2.0508510436658398E-020
  -9.6999999999999975E-002    -2.1837221812915565E-020
  -9.3999999999999972E-002    -7.7391402183350822E-020
  -9.0999999999999970E-002    -7.5477130171244775E-020
  -8.7999999999999967E-002     4.3326801650074673E-020
  -8.4999999999999964E-002     2.2650727336628817E-019
  -8.1999999999999962E-002     2.7103559400792651E-019
  -7.8999999999999959E-002    -3.4985265570263411E-020
  -7.5999999999999956E-002    -6.1612174327680834E-019
  -7.2999999999999954E-002    -9.2672616046954017E-019
  -6.9999999999999951E-002    -2.4697307942493712E-019
  -6.6999999999999948E-002     1.4879705939521789E-018
  -6.3999999999999946E-002     2.9491091550994550E-018
  -6.0999999999999943E-002     1.8571674159683240E-018
  -5.7999999999999940E-002    -2.8655831958418108E-018
  -5.4999999999999938E-002    -8.4978470240207450E-018
  -5.1999999999999935E-002    -8.4815068942194213E-018
  -4.8999999999999932E-002     2.6601028383889929E-018
  -4.5999999999999985E-002     2.1262838644043174E-017
  -4.2999999999999983E-002     3.0715893361896344E-017
  -3.9999999999999980E-002     1.0460683002276664E-017
  -3.6999999999999977E-002    -4.2075421553588691E-017
  -3.3999999999999975E-002    -9.2192909381573375E-017
  -3.0999999999999972E-002    -7.6873651003313791E-017
  -2.7999999999999969E-002     4.4739774725649866E-017
  -2.4999999999999967E-002     2.2400713784122882E-016
  -2.1999999999999964E-002     3.0289158588551829E-016
  -1.8999999999999961E-002     1.0297963965732086E-016
  -1.5999999999999959E-002    -3.8958473665439406E-016
  -1.2999999999999956E-002    -8.7333946479734164E-016
  -9.9999999999999534E-003    -8.0743293894475857E-016
  -6.9999999999999507E-003     1.9332745267851542E-016
  -3.9999999999999480E-003     1.8240572206744465E-015
  -9.9999999999994538E-004     2.8742384452550697E-015
   2.0000000000000573E-003     1.7888835316682974E-015
   5.0000000000000600E-003    -2.0041142477785000E-015
   8.0000000000000626E-003    -6.7882379612512482E-015
   1.1000000000000065E-002    -8.5801349055207207E-015
   1.4000000000000068E-002    -3.3713203355474967E-015
   1.7000000000000015E-002     9.0535398080176147E-015
   2.0000000000000018E-002     2.2266411498052396E-014
   2.3000000000000020E-002     2.4580339702708084E-014
   2.6000000000000023E-002     6.1220366718980271E-015
   2.9000000000000026E-002    -3.1146460603380406E-014
   3.2000000000000028E-002    -6.7425736147703218E-014
   3.5000000000000031E-002    -7.0695279624428506E-014
   3.8000000000000034E-002    -1.6089798306861524E-014
   4.1000000000000036E-002     8.9044503852566581E-014
   4.4000000000000039E-002     1.9158155314585891E-013
   4.7000000000000042E-002     2.0777657502876572E-013
   5.0000000000000044E-002     7.0950064176861862E-014
   5.3000000000000047E-002    -2.0760911985772248E-013
   5.6000000000000050E-002    -5.0354047151513328E-013
   5.9000000000000052E-002    -6.0917252734742959E-013
   6.2000000000000055E-002    -3.3870608622425737E-013
   6.5000000000000058E-002     3.2955699718882714E-013
   6.8000000000000060E-002     1.1556182444649802E-012
   7.1000000000000063E-002     1.6714779153792415E-012
   7.4000000000000066E-002     1.3806772955399978E-012
   7.7000000000000068E-002     6.2392992094622380E-014
   8.0000000000000016E-002    -1.9727057711119082E-012
   8.3000000000000018E-002    -3.8525559614062128E-012
   8.6000000000000021E-002    -4.4368261306481705E-012
   8.9000000000000024E-002    -2.8626887144527863E-012
   9.2000000000000026E-002     8.9953293992916166E-013
   9.5000000000000029E-002     5.7919929064228728E-012
   9.8000000000000032E-002     9.9211835312782285E-012
  0.10100000000000003          1.1267536812319889E-011
  0.10400000000000004          8.5350453710930973E-012
  0.10700000000000004          1.7098038075124236E-012
  0.11000000000000004         -7.9609693535179537E-012
  0.11300000000000004         -1.8512952252746433E-011
  0.11600000000000005         -2.7936744112786377E-011
  0.11900000000000005         -3.4489367907485004E-011
  0.12200000000000005         -3.6414363178986580E-011
  0.12500000000000006         -3.1311866696236000E-011
  0.12800000000000006         -1.5765663579692010E-011
  0.13100000000000006          1.4211951681512420E-011
  0.13400000000000006          6.1862856694233522E-011
  0.13700000000000007          1.2811514786471651E-010
  0.14000000000000007          2.1075942634015512E-010
  0.14300000000000007          3.0510607294946479E-010
  0.14600000000000007          4.0604460751153030E-010
  0.14900000000000008          5.1057438121144292E-010
  0.15200000000000008          6.1956077128963868E-010
  0.15500000000000008          7.3796885792771764E-010
  0.15800000000000008          8.7380101977636584E-010
  0.16100000000000009          1.0367238586220084E-009
  0.16400000000000009          1.2373411049829800E-009
  0.16700000000000009          1.4872636667717789E-009
  0.17000000000000010          1.7992116558245622E-009
  0.17300000000000010          2.1861984159878826E-009
  0.17600000000000010          2.6596304949509379E-009
  0.17899999999999999          3.2274376207443305E-009
  0.18200000000000000          3.8940283829382773E-009
  0.18500000000000000          4.6631840703502173E-009
  0.18800000000000000          5.5431836335693709E-009
  0.19100000000000000          6.5517981092687638E-009
  0.19400000000000001          7.7183192332645580E-009
  0.19700000000000001          9.0814690230223532E-009
  0.20000000000000001          1.0684383300345688E-008
  0.20300000000000001          1.2569910902603259E-008
  0.20600000000000002          1.4779024349962380E-008
  0.20900000000000002          1.7353205006146328E-008
  0.21200000000000002          2.0339163396328377E-008
  0.21500000000000002          2.3793048792626958E-008
  0.21800000000000003          2.7781752300065369E-008
  0.22100000000000003          3.2381853259241773E-008
  0.22400000000000003          3.7677452333494612E-008
  0.22700000000000004          4.3759441936835069E-008
  0.23000000000000004          5.0726466417183708E-008
  0.23300000000000004          5.8687147590607982E-008
  0.23600000000000004          6.7762341463077943E-008
  0.23900000000000005          7.8086678234777177E-008
  0.24200000000000005          8.9809691396880436E-008
  0.24500000000000005          1.0309762390339796E-007
  0.24800000000000005          1.1813511428086983E-007
  0.25100000000000006          1.3512553588836037E-007
  0.25400000000000006          1.5428939928325555E-007
  0.25700000000000006          1.7586122751798436E-007
  0.26000000000000006          2.0008666061960203E-007
  0.26300000000000007          2.2722372216502914E-007
  0.26600000000000007          2.5754757502609927E-007
  0.26900000000000007          2.9135753693076130E-007
  0.27200000000000008          3.2897942056418491E-007
  0.27500000000000008          3.7076463496047008E-007
  0.27800000000000008          4.1708381407019832E-007
  0.28100000000000008          4.6831782271043712E-007
  0.28400000000000009          5.2485488631690508E-007
  0.28700000000000009          5.8709012237113799E-007
  0.29000000000000009          6.5543157561452620E-007
  0.29300000000000009          7.3030183069133176E-007
  0.29600000000000010          8.1213739230655756E-007
  0.29900000000000010          9.0138022622659043E-007
  0.30200000000000010          9.9847175526330547E-007
  0.30499999999999999          1.1038451967904185E-006
  0.30800000000000000          1.2179219389402239E-006
  0.31100000000000000          1.3411102352945522E-006
  0.31400000000000000          1.4738012639287701E-006
  0.31700000000000000          1.6163581674350013E-006
  0.32000000000000001          1.7691079187317283E-006
  0.32300000000000001          1.9323362688476682E-006
  0.32600000000000001          2.1062786882902967E-006
  0.32900000000000001          2.2911092205061504E-006
  0.33200000000000002          2.4869448941452453E-006
  0.33500000000000002          2.6938275492082852E-006
  0.33800000000000002          2.9117168064273690E-006
  0.34100000000000003          3.1404784731519746E-006
  0.34400000000000003          3.3798668126395276E-006
  0.34700000000000003          3.6295242277954605E-006
  0.35000000000000003          3.8889805561145702E-006
  0.35300000000000004          4.1576263447778978E-006
  0.35600000000000004          4.4347278112762541E-006
  0.35900000000000004          4.7194010317068152E-006
  0.36200000000000004          5.0106129689995425E-006
  0.36500000000000005          5.3071757068252315E-006
  0.36800000000000005          5.6077501790893049E-006
  0.37100000000000005          5.9108376271975404E-006
  0.37400000000000005          6.2147813013612731E-006
  0.37700000000000006          6.5177646664771252E-006
  0.38000000000000006          6.8178034952342883E-006
  0.38300000000000006          7.1127755370872008E-006
  0.38600000000000007          7.4003917387447408E-006
  0.38900000000000007          7.6782470798737592E-006
  0.39200000000000007          7.9438090608861255E-006
  0.39500000000000007          8.1944295298477060E-006
  0.39800000000000008          8.4273678987947645E-006
  0.40100000000000008          8.6398099299542213E-006
  0.40400000000000008          8.8288883675469285E-006
  0.40700000000000008          8.9917138835049116E-006
  0.41000000000000009          9.1253702473971061E-006
  0.41300000000000009          9.2269880356244884E-006
  0.41600000000000009          9.2937225566580342E-006
  0.41900000000000009          9.3228130488115226E-006
  0.42200000000000010          9.3116075130279593E-006
  0.42500000000000010          9.2576027424681493E-006
  0.42800000000000010          9.1584969850950837E-006
  0.43100000000000011          9.0121497599038031E-006
  0.43400000000000000          8.8167181338521383E-006
  0.43700000000000000          8.5705775460098665E-006
  0.44000000000000000          8.2724187745679046E-006
  0.44300000000000000          7.9212806027887677E-006
  0.44600000000000001          7.5165362289168476E-006
  0.44900000000000001          7.0579716543154002E-006
  0.45200000000000001          6.5457522158663733E-006
  0.45500000000000002          5.9804713191943369E-006
  0.45800000000000002          5.3631569661223197E-006
  0.46100000000000002          4.6952720967515302E-006
  0.46400000000000002          3.9787426894990141E-006
  0.46700000000000003          3.2159304820794240E-006
  0.47000000000000003          2.4096946197931642E-006
  0.47300000000000003          1.5632542928981822E-006
  0.47600000000000003          6.8029759313064120E-007
  0.47900000000000004         -2.3510959068276461E-007
  0.48200000000000004         -1.1785315699299722E-006
  0.48500000000000004         -2.1451604690813836E-006
  0.48800000000000004         -3.1298758917446091E-006
  0.49100000000000005         -4.1272655983099075E-006
  0.49400000000000005         -5.1316907381380177E-006
  0.49700000000000005         -6.1373362147025299E-006
  0.50000000000000000         -7.1382577968555055E-006
  0.50300000000000011         -8.1284338084271458E-006
  0.50600000000000001         -9.1018009104392806E-006
  0.50900000000000012         -1.0052297256075762E-005
  0.51200000000000001         -1.0973932802453409E-005
  0.51500000000000012         -1.1860843835882773E-005
  0.51800000000000002         -1.2707375726731935E-005
  0.52100000000000013         -1.3508140972292117E-005
  0.52400000000000002         -1.4258033701274657E-005
  0.52700000000000014         -1.4952285972641982E-005
  0.53000000000000003         -1.5586510503727903E-005
  0.53300000000000014         -1.6156742201255735E-005
  0.53600000000000003         -1.6659479987406010E-005
  0.53900000000000015         -1.7091727161308167E-005
  0.54200000000000004         -1.7451035292821691E-005
  0.54500000000000015         -1.7735499403589855E-005
  0.54800000000000004         -1.7943772790320733E-005
  0.55100000000000016         -1.8075069111643046E-005
  0.55400000000000005         -1.8129188071800970E-005
  0.55700000000000016         -1.8106493621681307E-005
  0.56000000000000005         -1.8007936918251172E-005
  0.56299999999999994         -1.7835010075754722E-005
  0.56600000000000006         -1.7589760240459856E-005
  0.56899999999999995         -1.7274703790723072E-005
  0.57200000000000006         -1.6892834014311497E-005
  0.57499999999999996         -1.6447560131991649E-005
  0.57800000000000007         -1.5942711285787679E-005
  0.58099999999999996         -1.5382493059625998E-005
  0.58400000000000007         -1.4771420578443306E-005
  0.58699999999999997         -1.4114267166238345E-005
  0.59000000000000008         -1.3416013450539458E-005
  0.59299999999999997         -1.2681788694151176E-005
  0.59600000000000009         -1.1916854579339652E-005
  0.59899999999999998         -1.1126526828740531E-005
  0.60200000000000009         -1.0316145119298754E-005
  0.60500000000000020         -9.4910265964054075E-006
  0.60800000000000010         -8.6563725871015809E-006
  0.61100000000000021         -7.8172900849469199E-006
  0.61400000000000010         -6.9786921264244967E-006
  0.61700000000000021         -6.1452840324305197E-006
  0.62000000000000011         -5.3215876637914844E-006
  0.62300000000000022         -4.5118500831129123E-006
  0.62600000000000011         -3.7200169282757587E-006
  0.62900000000000000         -2.9497122305685374E-006
  0.63200000000000012         -2.2042183354548594E-006
  0.63500000000000001         -1.4864836530474175E-006
  0.63800000000000012         -7.9911411911206487E-007
  0.64100000000000001         -1.4435413336070205E-007
  0.64400000000000013          4.7585913219984424E-007
  0.64700000000000002          1.0599871338588897E-006
  0.65000000000000013          1.6068466369383238E-006
  0.65300000000000002          2.1156023545074841E-006
  0.65600000000000014          2.5857336953231990E-006
  0.65900000000000003          3.0170235534377791E-006
  0.66200000000000014          3.4095420963039005E-006
  0.66500000000000004          3.7636147177055469E-006
  0.66800000000000015          4.0798350240807530E-006
  0.67100000000000004          4.3590220901294499E-006
  0.67400000000000015          4.6022323703075747E-006
  0.67700000000000005          4.8107066389343884E-006
  0.68000000000000016          4.9858216009432756E-006
  0.68300000000000005          5.1290683433826520E-006
  0.68600000000000017          5.2420510895596890E-006
  0.68900000000000006          5.3264667770321091E-006
  0.69200000000000017          5.3840962237484199E-006
  0.69500000000000006          5.4167840303456448E-006
  0.69800000000000018          5.4264143407659153E-006
  0.70100000000000007          5.4148576511135933E-006
  0.70400000000000018          5.3839636751688239E-006
  0.70700000000000007          5.3355394130702873E-006
  0.71000000000000019          5.2713757248460678E-006
  0.71300000000000008          5.1932146280994178E-006
  0.71600000000000019          5.1027443168880511E-006
  0.71900000000000008          5.0015849826771423E-006
  0.72200000000000020          4.8912728708203160E-006
  0.72500000000000009          4.7732628983728220E-006
  0.72800000000000020          4.6489079513933767E-006
  0.73100000000000009          4.5194888657054161E-006
  0.73400000000000021          4.3862057274332164E-006
  0.73700000000000010          4.2501514461842803E-006
  0.74000000000000021          4.1123124741213592E-006
  0.74300000000000010          3.9735942725637724E-006
  0.74600000000000022          3.8348117342480711E-006
  0.74900000000000011          3.6966843478288249E-006
  0.75200000000000022          3.5598675919270029E-006
  0.75500000000000012          3.4249534843447929E-006
  0.75800000000000001          3.2924334420737156E-006
  0.76100000000000012          3.1627068496428997E-006
  0.76400000000000001          3.0361169340109007E-006
  0.76700000000000013          2.9129602813879052E-006
  0.77000000000000002          2.7934682136181085E-006
  0.77300000000000013          2.6778356645295004E-006
  0.77600000000000002          2.5662175946577806E-006
  0.77900000000000014          2.4587114019160962E-006
  0.78200000000000003          2.3553437095165573E-006
  0.78500000000000014          2.2561313778536784E-006
  0.78800000000000003          2.1610798131460207E-006
  0.79100000000000015          2.0701692455031692E-006
  0.79400000000000004          1.9833453869696827E-006
  0.79700000000000015          1.9005433062488117E-006
  0.80000000000000004          1.8216741438305312E-006
  0.80300000000000016          1.7466148205654067E-006
  0.80600000000000005          1.6752454550988912E-006
  0.80900000000000016          1.6074674986093219E-006
  0.81200000000000006          1.5431788315681951E-006
  0.81500000000000017          1.4822440677150007E-006
  0.81800000000000006          1.4245199905793392E-006
  0.82100000000000017          1.3698657918634286E-006
  0.82400000000000007          1.3181268077684555E-006
  0.82700000000000018          1.2691579808610044E-006
  0.83000000000000007          1.2228420800798929E-006
  0.83300000000000018          1.1790757090334884E-006
  0.83600000000000008          1.1377207035747743E-006
  0.83900000000000019          1.0986328535393688E-006
  0.84200000000000008          1.0616837952390104E-006
  0.84500000000000020          1.0267457469564370E-006
  0.84800000000000009          9.9369600194103593E-007
  0.85100000000000020          9.6242384807273471E-007
  0.85400000000000009          9.3283248666052634E-007
  0.85700000000000021          9.0481336779822405E-007
  0.86000000000000010          8.7824424853738365E-007
  0.86300000000000021          8.5302335302868862E-007
  0.86600000000000010          8.2906146697325294E-007
  0.86900000000000022          8.0627052657743023E-007
  0.87200000000000011          7.8455804875855977E-007
  0.87500000000000022          7.6384415017371593E-007
  0.87800000000000011          7.4404913299503070E-007
  0.88100000000000001          7.2509500654888671E-007
  0.88400000000000012          7.0690565566038980E-007
  0.88700000000000001          6.8941720837734246E-007
  0.89000000000000012          6.7257507612128859E-007
  0.89300000000000002          6.5631397182593403E-007
  0.89600000000000013          6.4057073784516651E-007
  0.89900000000000002          6.2530048970590555E-007
  0.90200000000000014          6.1046981266920187E-007
  0.90500000000000003          5.9603754807579148E-007
  0.90800000000000014          5.8196440685611372E-007
  0.91100000000000003          5.6822334735685552E-007
  0.91400000000000015          5.5478845862955747E-007
  0.91700000000000004          5.4162387856278038E-007
  0.92000000000000015          5.2870662767626371E-007
  0.92300000000000004          5.1603813166124279E-007
  0.92600000000000016          5.0361252096789060E-007
  0.92900000000000005          4.9140470642853259E-007
  0.93200000000000016          4.7940861471046755E-007
  0.93500000000000005          4.6763794486937554E-007
  0.93800000000000017          4.5609339597837677E-007
  0.94100000000000006          4.4476997453960296E-007
  0.94400000000000017          4.3368583640967251E-007
  0.94700000000000006          4.2285944793509591E-007
  0.95000000000000018          4.1227988647515615E-007
  0.95300000000000007          4.0193890324362891E-007
  0.95600000000000018          3.9186730601059278E-007
  0.95900000000000007          3.8209103513229013E-007
  0.96200000000000019          3.7260848348476649E-007
  0.96500000000000008          3.6342980865853382E-007
  0.96800000000000019          3.5458279025925931E-007
  0.97100000000000009          3.4606678397687341E-007
  0.97400000000000020          3.3786400168092549E-007
  0.97700000000000009          3.2999139526520775E-007
  0.98000000000000020          3.2247840736460693E-007
  0.98300000000000010          3.1531631457833490E-007
  0.98600000000000021          3.0848730232134216E-007
  0.98900000000000010          3.0200690704511429E-007
  0.99200000000000021          2.9587853047155826E-007
  0.99500000000000011          2.9007362632528911E-007
  0.99800000000000022          2.8457787931183677E-007
   1.0010000000000001          2.7940717307287697E-007
   1.0040000000000002          2.7454985305749657E-007
   1.0070000000000001          2.6996644141187552E-007
   1.0100000000000000          2.6564442956431724E-007
   1.0130000000000001          2.6158952979339108E-007
   1.0160000000000000          2.5777426524285559E-007
   1.0190000000000001          2.5415905397231044E-007
   1.0220000000000000          2.5073790247146076E-007
   1.0250000000000001          2.4750376147974146E-007
   1.0280000000000000          2.4441203951927248E-007
   1.0310000000000001          2.4142561533074216E-007
   1.0340000000000000          2.3854139935856510E-007
   1.0370000000000001          2.3574469312729507E-007
   1.0400000000000000          2.3299082142283047E-007
   1.0430000000000001          2.3026002511873839E-007
   1.0460000000000000          2.2755838086429517E-007
   1.0490000000000002          2.2486264901387608E-007
   1.0520000000000000          2.2212831528660082E-007
   1.0550000000000002          2.1934465834224590E-007
   1.0580000000000001          2.1651535335403758E-007
   1.0610000000000002          2.1361152265639077E-007
   1.0640000000000001          2.1060716143514269E-007
   1.0670000000000002          2.0751486821748665E-007
   1.0700000000000001          2.0434183396753918E-007
   1.0730000000000002          2.0105965716960419E-007
   1.0760000000000001          1.9765482440284403E-007
   1.0790000000000002          1.9414870917182913E-007
   1.0820000000000001          1.9054594692420644E-007
   1.0850000000000002          1.8682917005602918E-007
   1.0880000000000001          1.8300844640466125E-007
   1.0910000000000002          1.7911583553991819E-007
   1.0940000000000001          1.7515357363341719E-007
   1.0970000000000002          1.7111329871850687E-007
