 -0.39999999999999997          0.0000000000000000     
 -0.39699999999999996          0.0000000000000000     
 -0.39399999999999996          0.0000000000000000     
 -0.39099999999999996          0.0000000000000000     
 -0.38799999999999996          0.0000000000000000     
 -0.38499999999999995          0.0000000000000000     
 -0.38199999999999995          0.0000000000000000     
 -0.37899999999999995          0.0000000000000000     
 -0.37599999999999995          0.0000000000000000     
 -0.37299999999999994          0.0000000000000000     
 -0.37000000000000000          0.0000000000000000     
 -0.36699999999999999          0.0000000000000000     
 -0.36399999999999999          0.0000000000000000     
 -0.36099999999999999          0.0000000000000000     
 -0.35799999999999998          0.0000000000000000     
 -0.35499999999999998          0.0000000000000000     
 -0.35199999999999998          0.0000000000000000     
 -0.34899999999999998          0.0000000000000000     
 -0.34599999999999997          0.0000000000000000     
 -0.34299999999999997          0.0000000000000000     
 -0.33999999999999997          0.0000000000000000     
 -0.33699999999999997          0.0000000000000000     
 -0.33399999999999996          0.0000000000000000     
 -0.33099999999999996          0.0000000000000000     
 -0.32799999999999996          0.0000000000000000     
 -0.32499999999999996          0.0000000000000000     
 -0.32199999999999995          0.0000000000000000     
 -0.31899999999999995          0.0000000000000000     
 -0.31599999999999995          0.0000000000000000     
 -0.31299999999999994          0.0000000000000000     
 -0.30999999999999994          0.0000000000000000     
 -0.30699999999999994          0.0000000000000000     
 -0.30399999999999994          0.0000000000000000     
 -0.30099999999999993          0.0000000000000000     
 -0.29799999999999993          0.0000000000000000     
 -0.29499999999999998          0.0000000000000000     
 -0.29199999999999998          0.0000000000000000     
 -0.28899999999999998          0.0000000000000000     
 -0.28599999999999998          0.0000000000000000     
 -0.28299999999999997          0.0000000000000000     
 -0.27999999999999997          0.0000000000000000     
 -0.27699999999999997          0.0000000000000000     
 -0.27399999999999997          0.0000000000000000     
 -0.27099999999999996          0.0000000000000000     
 -0.26799999999999996          0.0000000000000000     
 -0.26499999999999996          0.0000000000000000     
 -0.26199999999999996          0.0000000000000000     
 -0.25899999999999995          0.0000000000000000     
 -0.25599999999999995          0.0000000000000000     
 -0.25300000000000000          0.0000000000000000     
 -0.24999999999999997          0.0000000000000000     
 -0.24699999999999997          0.0000000000000000     
 -0.24399999999999997          0.0000000000000000     
 -0.24099999999999996          0.0000000000000000     
 -0.23799999999999996          0.0000000000000000     
 -0.23499999999999996          0.0000000000000000     
 -0.23199999999999996          0.0000000000000000     
 -0.22899999999999995          0.0000000000000000     
 -0.22599999999999995          0.0000000000000000     
 -0.22299999999999998          0.0000000000000000     
 -0.21999999999999997          0.0000000000000000     
 -0.21699999999999997          0.0000000000000000     
 -0.21399999999999997          0.0000000000000000     
 -0.21099999999999997          0.0000000000000000     
 -0.20799999999999996          0.0000000000000000     
 -0.20499999999999996          0.0000000000000000     
 -0.20199999999999996          0.0000000000000000     
 -0.19899999999999995          0.0000000000000000     
 -0.19599999999999995          0.0000000000000000     
 -0.19299999999999995          0.0000000000000000     
 -0.18999999999999997          0.0000000000000000     
 -0.18699999999999997          0.0000000000000000     
 -0.18399999999999997          0.0000000000000000     
 -0.18099999999999997          0.0000000000000000     
 -0.17799999999999996          0.0000000000000000     
 -0.17499999999999996          0.0000000000000000     
 -0.17199999999999996          0.0000000000000000     
 -0.16899999999999996          0.0000000000000000     
 -0.16599999999999995          0.0000000000000000     
 -0.16299999999999995          0.0000000000000000     
 -0.15999999999999998          0.0000000000000000     
 -0.15699999999999997          0.0000000000000000     
 -0.15399999999999997          0.0000000000000000     
 -0.15099999999999997          0.0000000000000000     
 -0.14799999999999996          0.0000000000000000     
 -0.14499999999999996          0.0000000000000000     
 -0.14199999999999996          0.0000000000000000     
 -0.13899999999999996          0.0000000000000000     
 -0.13599999999999995          0.0000000000000000     
 -0.13299999999999995          0.0000000000000000     
 -0.12999999999999995          0.0000000000000000     
 -0.12699999999999995          0.0000000000000000     
 -0.12399999999999994          0.0000000000000000     
 -0.12099999999999994          0.0000000000000000     
 -0.11799999999999994          0.0000000000000000     
 -0.11499999999999994          0.0000000000000000     
 -0.11199999999999993          0.0000000000000000     
 -0.10899999999999999          0.0000000000000000     
 -0.10599999999999998          0.0000000000000000     
 -0.10299999999999998          0.0000000000000000     
  -9.9999999999999978E-002     0.0000000000000000     
  -9.6999999999999975E-002     0.0000000000000000     
  -9.3999999999999972E-002     0.0000000000000000     
  -9.0999999999999970E-002     0.0000000000000000     
  -8.7999999999999967E-002     0.0000000000000000     
  -8.4999999999999964E-002     0.0000000000000000     
  -8.1999999999999962E-002     0.0000000000000000     
  -7.8999999999999959E-002     0.0000000000000000     
  -7.5999999999999956E-002     0.0000000000000000     
  -7.2999999999999954E-002     0.0000000000000000     
  -6.9999999999999951E-002     0.0000000000000000     
  -6.6999999999999948E-002     0.0000000000000000     
  -6.3999999999999946E-002     0.0000000000000000     
  -6.0999999999999943E-002     0.0000000000000000     
  -5.7999999999999940E-002     0.0000000000000000     
  -5.4999999999999938E-002     0.0000000000000000     
  -5.1999999999999935E-002     0.0000000000000000     
  -4.8999999999999932E-002     0.0000000000000000     
  -4.5999999999999985E-002     0.0000000000000000     
  -4.2999999999999983E-002     0.0000000000000000     
  -3.9999999999999980E-002     0.0000000000000000     
  -3.6999999999999977E-002     0.0000000000000000     
  -3.3999999999999975E-002     0.0000000000000000     
  -3.0999999999999972E-002     0.0000000000000000     
  -2.7999999999999969E-002     0.0000000000000000     
  -2.4999999999999967E-002     0.0000000000000000     
  -2.1999999999999964E-002     0.0000000000000000     
  -1.8999999999999961E-002     0.0000000000000000     
  -1.5999999999999959E-002     0.0000000000000000     
  -1.2999999999999956E-002     0.0000000000000000     
  -9.9999999999999534E-003     0.0000000000000000     
  -6.9999999999999507E-003     0.0000000000000000     
  -3.9999999999999480E-003     0.0000000000000000     
  -9.9999999999994538E-004     0.0000000000000000     
   2.0000000000000573E-003     0.0000000000000000     
   5.0000000000000600E-003     0.0000000000000000     
   8.0000000000000626E-003     0.0000000000000000     
   1.1000000000000065E-002     0.0000000000000000     
   1.4000000000000068E-002     0.0000000000000000     
   1.7000000000000015E-002     0.0000000000000000     
   2.0000000000000018E-002     0.0000000000000000     
   2.3000000000000020E-002     0.0000000000000000     
   2.6000000000000023E-002     0.0000000000000000     
   2.9000000000000026E-002     0.0000000000000000     
   3.2000000000000028E-002     0.0000000000000000     
   3.5000000000000031E-002     0.0000000000000000     
   3.8000000000000034E-002     0.0000000000000000     
   4.1000000000000036E-002     0.0000000000000000     
   4.4000000000000039E-002     0.0000000000000000     
   4.7000000000000042E-002     0.0000000000000000     
   5.0000000000000044E-002     0.0000000000000000     
   5.3000000000000047E-002     0.0000000000000000     
   5.6000000000000050E-002     0.0000000000000000     
   5.9000000000000052E-002     0.0000000000000000     
   6.2000000000000055E-002     0.0000000000000000     
   6.5000000000000058E-002     0.0000000000000000     
   6.8000000000000060E-002     0.0000000000000000     
   7.1000000000000063E-002     0.0000000000000000     
   7.4000000000000066E-002     0.0000000000000000     
   7.7000000000000068E-002     0.0000000000000000     
   8.0000000000000016E-002     0.0000000000000000     
   8.3000000000000018E-002     0.0000000000000000     
   8.6000000000000021E-002     0.0000000000000000     
   8.9000000000000024E-002     0.0000000000000000     
   9.2000000000000026E-002     0.0000000000000000     
   9.5000000000000029E-002     0.0000000000000000     
   9.8000000000000032E-002     0.0000000000000000     
  0.10100000000000003          0.0000000000000000     
  0.10400000000000004          0.0000000000000000     
  0.10700000000000004          0.0000000000000000     
  0.11000000000000004          0.0000000000000000     
  0.11300000000000004          0.0000000000000000     
  0.11600000000000005          0.0000000000000000     
  0.11900000000000005          0.0000000000000000     
  0.12200000000000005          0.0000000000000000     
  0.12500000000000006          0.0000000000000000     
  0.12800000000000006         -2.2193401480489777E-041
  0.13100000000000006         -3.3136468203528672E-041
  0.13400000000000006          3.6548575264949545E-041
  0.13700000000000007         -3.3091738700891248E-041
  0.14000000000000007         -6.4679719752048382E-041
  0.14300000000000007         -1.7942956125903227E-039
  0.14600000000000007         -2.2826984997134118E-039
  0.14900000000000008          8.2216052257923724E-040
  0.15200000000000008          4.3328337331883456E-039
  0.15500000000000008          7.9314763666676374E-039
  0.15800000000000008          5.7523813692068905E-039
  0.16100000000000009         -1.2814013150220512E-038
  0.16400000000000009         -3.0265437229918651E-038
  0.16700000000000009         -2.7294178671715805E-038
  0.17000000000000010          4.9981111164022202E-039
  0.17300000000000010          7.3083695053161738E-038
  0.17600000000000010          1.2837208950139576E-037
  0.17899999999999999          9.6654032550558208E-038
  0.18200000000000000         -5.9775617038266126E-038
  0.18500000000000000         -3.1789020836718292E-037
  0.18800000000000000         -4.8717741031034185E-037
  0.19100000000000000         -2.9843001455171713E-037
  0.19400000000000001          3.9843289007629189E-037
  0.19700000000000001          1.3607305164517663E-036
  0.20000000000000001          1.8351034227669599E-036
  0.20300000000000001          8.5776882744779263E-037
  0.20600000000000002         -1.9732351909625376E-036
  0.20900000000000002         -5.5604679265060124E-036
  0.21200000000000002         -7.0206443014975663E-036
  0.21500000000000002         -2.8564395546763507E-036
  0.21800000000000003          8.2403161047597802E-036
  0.22100000000000003          2.2159490642773931E-035
  0.22400000000000003          2.8289713567346706E-035
  0.22700000000000004          1.3423947451182854E-035
  0.23000000000000004         -2.8636012850996640E-035
  0.23300000000000004         -8.5321879505249716E-035
  0.23600000000000004         -1.1963212880859187E-034
  0.23900000000000005         -8.0320364003707637E-035
  0.24200000000000005          6.7446222286333035E-035
  0.24500000000000005          2.9905005305751372E-034
  0.24800000000000005          4.9906735992282327E-034
  0.25100000000000006          4.7526534930641926E-034
  0.25400000000000006          4.3263904709883538E-035
  0.25700000000000006         -8.2579253271572667E-034
  0.26000000000000006         -1.8536221385962474E-033
  0.26300000000000007         -2.4053179272449524E-033
  0.26600000000000007         -1.6553519006780820E-033
  0.26900000000000007          9.8219898953987520E-034
  0.27200000000000008          5.2531129460817153E-033
  0.27500000000000008          9.5669269601279112E-033
  0.27800000000000008          1.1008808451315037E-032
  0.28100000000000008          6.2235416139594908E-033
  0.28400000000000009         -6.7571843140645021E-033
  0.28700000000000009         -2.6208161914288168E-032
  0.29000000000000009         -4.4997453667270277E-032
  0.29300000000000009         -5.0914078374979385E-032
  0.29600000000000010         -3.0255540392018066E-032
  0.29900000000000010          2.5180290203539980E-032
  0.30200000000000010          1.0938681992822955E-031
  0.30499999999999999          1.9546339067630563E-031
  0.30800000000000000          2.3596744354748947E-031
  0.31100000000000000          1.7470092466871541E-031
  0.31400000000000000         -2.8979377936117188E-032
  0.31700000000000000         -3.6806495741283587E-031
  0.32000000000000001         -7.5961413624533971E-031
  0.32300000000000001         -1.0369545716004496E-030
  0.32600000000000001         -9.7884666195038890E-031
  0.32900000000000001         -3.8385181721062074E-031
  0.33200000000000002          8.1868697907130183E-031
  0.33500000000000002          2.4518110070265371E-030
  0.33800000000000002          4.0193256793784343E-030
  0.34100000000000003          4.7387740978276948E-030
  0.34400000000000003          3.7244707965372776E-030
  0.34700000000000003          3.2488488252137514E-031
  0.35000000000000003         -5.4465999263984040E-030
  0.35300000000000004         -1.2521819151584481E-029
  0.35600000000000004         -1.8618555693060175E-029
  0.35900000000000004         -2.0505468287414001E-029
  0.36200000000000004         -1.4812446164136619E-029
  0.36500000000000005          6.5171102797459921E-031
  0.36800000000000005          2.5337179124041121E-029
  0.37100000000000005          5.4640234229807457E-029
  0.37400000000000005          7.9488280620812068E-029
  0.37700000000000006          8.7449210440070803E-029
  0.38000000000000006          6.5723920946310931E-029
  0.38300000000000006          5.8427175033550013E-030
  0.38600000000000007         -9.0831537669214066E-029
  0.38900000000000007         -2.0842527370374624E-028
  0.39200000000000007         -3.1481693649385222E-028
  0.39500000000000007         -3.6490721915720620E-028
  0.39800000000000008         -3.1015697358711620E-028
  0.40100000000000008         -1.1404866446559716E-028
  0.40400000000000008          2.2908637590472076E-028
  0.40700000000000008          6.7676069828173717E-028
  0.41000000000000009          1.1291241886403249E-027
  0.41300000000000009          1.4346896888190343E-027
  0.41600000000000009          1.4159347242070107E-027
  0.41900000000000009          9.1539416839648403E-028
  0.42200000000000010         -1.4348985262110946E-028
  0.42500000000000010         -1.6936793316097195E-027
  0.42800000000000010         -3.4790595343164730E-027
  0.43100000000000011         -5.0479660185989159E-027
  0.43400000000000000         -5.8045478516641044E-027
  0.43700000000000000         -5.1270176376314528E-027
  0.44000000000000000         -2.5454506488942062E-027
  0.44300000000000000          2.0492898515452143E-027
  0.44600000000000001          8.2143401184918212E-027
  0.44900000000000001          1.4844760062353639E-026
  0.45200000000000001          2.0209711741806991E-026
  0.45500000000000002          2.2183794329804152E-026
  0.45800000000000002          1.8686022634907998E-026
  0.46100000000000002          8.2856795031808111E-027
  0.46400000000000002         -9.1279195041672032E-027
  0.46700000000000003         -3.1770931991667875E-026
  0.47000000000000003         -5.5678951555562793E-026
  0.47300000000000003         -7.4897219965086507E-026
  0.47600000000000003         -8.2276622739333559E-026
  0.47900000000000004         -7.0892387748086889E-026
  0.48200000000000004         -3.5947544404441614E-026
  0.48500000000000004          2.3154122345364354E-026
  0.48800000000000004          1.0103320220885218E-025
  0.49100000000000005          1.8541466381333580E-025
  0.49400000000000005          2.5760194530181064E-025
  0.49700000000000005          2.9471665464246322E-025
  0.50000000000000000          2.7377933274268888E-025
  0.50300000000000011          1.7727448076604589E-025
  0.50600000000000001         -6.2778945391229542E-028
  0.50900000000000012         -2.4845039470651294E-025
  0.51200000000000001         -5.3391974153797520E-025
  0.51500000000000012         -8.0412969700858899E-025
  0.51800000000000002         -9.9053982601567730E-025
  0.52100000000000013         -1.0192407774998476E-024
  0.52400000000000002         -8.2587357939202433E-025
  0.52700000000000014         -3.7336450347398434E-025
  0.53000000000000003          3.3058554637262303E-025
  0.53300000000000014          1.2201345978602657E-024
  0.53600000000000003          2.1663021833538826E-024
  0.53900000000000015          2.9839498338753332E-024
  0.54200000000000004          3.4529488391348998E-024
  0.54500000000000015          3.3533615488999065E-024
  0.54800000000000004          2.5115029417100436E-024
  0.55100000000000016          8.5063960545768119E-025
  0.55400000000000005         -1.5627439572313394E-024
  0.55700000000000016         -4.4876353013383914E-024
  0.56000000000000005         -7.5028178964083446E-024
  0.56299999999999994         -1.0035199381633430E-023
  0.56600000000000006         -1.1426256169794321E-023
  0.56899999999999995         -1.1034369296008318E-023
  0.57200000000000006         -8.3634991649651379E-024
  0.57499999999999996         -3.2008564386687898E-024
  0.57800000000000007          4.2595500006622708E-024
  0.58099999999999996          1.3334325640797874E-023
  0.58400000000000007          2.2835100913202235E-023
  0.58699999999999997          3.1140731601053369E-023
  0.59000000000000008          3.6366962265890997E-023
  0.59299999999999997          3.6629245225869339E-023
  0.59600000000000009          3.0376514447996631E-023
  0.59899999999999998          1.6756028939491183E-023
  0.60200000000000009         -4.0448201208431106E-024
  0.60500000000000020         -3.0544411112969559E-023
  0.60800000000000010         -5.9864317657751713E-023
  0.61100000000000021         -8.7833013361168941E-023
  0.61400000000000010         -1.0933059522074575E-022
  0.61700000000000021         -1.1887704409660877E-022
  0.62000000000000011         -1.1142965314776461E-022
  0.62300000000000022         -8.3313923803211698E-023
  0.62600000000000011         -3.3174649515153328E-023
  0.62900000000000000          3.7196754024045132E-023
  0.63200000000000012          1.2231383098307241E-022
  0.63500000000000001          2.1287730015539808E-022
  0.63800000000000012          2.9620767145206786E-022
  0.64100000000000001          3.5729696397223812E-022
  0.64400000000000013          3.8046995213963423E-022
  0.64700000000000002          3.5155944609843520E-022
  0.65000000000000013          2.6040153009984817E-022
  0.65300000000000002          1.0337561880538609E-022
  0.65600000000000014         -1.1437299055758956E-022
  0.65900000000000003         -3.7741049927303236E-022
  0.66200000000000014         -6.5956740625083421E-022
  0.66500000000000004         -9.2490235857938405E-022
  0.66800000000000015         -1.1302736949130222E-021
  0.67100000000000004         -1.2295518434382455E-021
  0.67400000000000015         -1.1792999255752959E-021
  0.67700000000000005         -9.4551800478997334E-022
  0.68000000000000016         -5.1078745504284618E-022
  0.68300000000000005          1.1905296252741860E-022
  0.68600000000000017          9.0966655165801807E-022
  0.68900000000000006          1.7955111336979246E-021
  0.69200000000000017          2.6805932754399344E-021
  0.69500000000000006          3.4434762877123671E-021
  0.69800000000000018          3.9469350864199591E-021
  0.70100000000000007          4.0520895864249139E-021
  0.70400000000000018          3.6363411609365827E-021
  0.70700000000000007          2.6137500664715865E-021
  0.71000000000000019          9.5572887771499011E-022
  0.71300000000000008         -1.2904008618666082E-021
  0.71600000000000019         -3.9879642289464830E-021
  0.71900000000000008         -6.9055350757323509E-021
  0.72200000000000020         -9.7222931332059868E-021
  0.72500000000000009         -1.2045988540332112E-020
  0.72800000000000020         -1.3444515947134961E-020
  0.73100000000000009         -1.3490355165271044E-020
  0.73400000000000021         -1.1815507840137747E-020
  0.73700000000000010         -8.1727569013119599E-021
  0.74000000000000021         -2.4972395950229896E-021
  0.74300000000000010          5.0392756449491696E-021
  0.74600000000000022          1.3989561596366104E-020
  0.74900000000000011          2.3616145802929232E-020
  0.75200000000000022          3.2908167565623137E-020
  0.75500000000000012          4.0635012197971631E-020
  0.75800000000000001          4.5440169673021942E-020
  0.76100000000000012          4.5971931187660589E-020
  0.76400000000000001          4.1046756154243259E-020
  0.76700000000000013          2.9831233215416195E-020
  0.77000000000000002          1.2027997322181480E-020
  0.77300000000000013         -1.1956413463277879E-020
  0.77600000000000002         -4.0884884328352177E-020
  0.77900000000000014         -7.2628440814915650E-020
  0.78200000000000003         -1.0419291136206009E-019
  0.78500000000000014         -1.3185020971515825E-019
  0.78800000000000003         -1.5138622732363282E-019
  0.79100000000000015         -1.5846012400583408E-019
  0.79400000000000004         -1.4906699984311131E-019
  0.79700000000000015         -1.2007009610594147E-019
  0.80000000000000004         -6.9764891634391373E-020
  0.80300000000000016          1.5823438940678414E-021
  0.80600000000000005          9.1288310136226985E-020
  0.80900000000000016          1.9396085493513030E-019
  0.81200000000000006          3.0144025724103378E-019
  0.81500000000000017          4.0302223947907821E-019
  0.81800000000000006          4.8601293651916653E-019
  0.82100000000000017          5.3662306639811264E-019
  0.82400000000000007          5.4119760827126587E-019
  0.82700000000000018          4.8770802120905888E-019
  0.83000000000000007          3.6743039612299784E-019
  0.83300000000000018          1.7665484489033877E-019
  0.83600000000000008         -8.1720969178830341E-020
  0.83900000000000019         -3.9692916752964846E-019
  0.84200000000000008         -7.4959499116867220E-019
  0.84500000000000020         -1.1117201619683649E-018
  0.84800000000000009         -1.4475559852040203E-018
  0.85100000000000020         -1.7154688804667849E-018
  0.85400000000000009         -1.8708342394932255E-018
  0.85700000000000021         -1.8699188717985738E-018
  0.86000000000000010         -1.6745437344386467E-018
  0.86300000000000021         -1.2572512796673031E-018
  0.86600000000000010         -6.0658038020056519E-019
  0.86900000000000022          2.6802635333740506E-019
  0.87200000000000011          1.3323419277435577E-018
  0.87500000000000022          2.5250004089363960E-018
  0.87800000000000011          3.7572992137288235E-018
  0.88100000000000001          4.9156433600606312E-018
  0.88400000000000012          5.8669873491845818E-018
  0.88700000000000001          6.4673681835898622E-018
  0.89000000000000012          6.5734401268053227E-018
  0.89300000000000002          6.0564518922576569E-018
  0.89600000000000013          4.8181155817027045E-018
  0.89900000000000002          2.8069116437422404E-018
  0.90200000000000014          3.3737873395911304E-020
  0.90500000000000003         -3.4150538096627843E-018
  0.90800000000000014         -7.3685945531777159E-018
  0.91100000000000003         -1.1568630287619933E-017
  0.91400000000000015         -1.5674080811217226E-017
  0.91700000000000004         -1.9274151108937839E-017
  0.92000000000000015         -2.1910990233951898E-017
  0.92300000000000004         -2.3111644237156348E-017
  0.92600000000000016         -2.2428185795194295E-017
  0.92900000000000005         -1.9484612144233370E-017
  0.93200000000000016         -1.4027127781927174E-017
  0.93500000000000005         -5.9744649101510511E-018
  0.93800000000000017          4.5364848095398591E-018
  0.94100000000000006          1.7114628603382985E-017
  0.94400000000000017          3.1093862012936783E-017
  0.94700000000000006          4.5531788640959968E-017
  0.95000000000000018          5.9233126218038235E-017
  0.95300000000000007          7.0800154019930609E-017
  0.95600000000000018          7.8711624814302049E-017
  0.95900000000000007          8.1429257244857975E-017
  0.96200000000000019          7.7529567941890448E-017
  0.96500000000000008          6.5851747688593414E-017
  0.96800000000000019          4.5656004729846353E-017
  0.97100000000000009          1.6778162625615175E-017
  0.97400000000000020         -2.0231559676963426E-017
  0.97700000000000009         -6.4001512687775116E-017
  0.98000000000000020         -1.1227948514616648E-016
  0.98300000000000010         -1.6193404198386045E-016
  0.98600000000000021         -2.0903181652730052E-016
  0.98900000000000010         -2.4899637476033880E-016
  0.99200000000000021         -2.7685400091466058E-016
  0.99500000000000011         -2.8756463827382693E-016
  0.99800000000000022         -2.7642601539925475E-016
   1.0010000000000001         -2.3953177253005939E-016
   1.0040000000000002         -1.7426446779607365E-016
   1.0070000000000001         -7.9776904262908907E-017
   1.0100000000000000          4.2561940295425590E-017
   1.0130000000000001          1.8881962431135707E-016
   1.0160000000000000          3.5227732121498716E-016
   1.0190000000000001          5.2339159620550087E-016
   1.0220000000000000          6.8997047855886340E-016
   1.0250000000000001          8.3759680040711546E-016
   1.0280000000000000          9.5030899809643252E-016
   1.0310000000000001          1.0115480876782236E-015
   1.0340000000000000          1.0053343923170970E-015
   1.0370000000000001          9.1764164800182653E-016
   1.0400000000000000          7.3788068404380232E-016
   1.0430000000000001          4.6043947319684574E-016
   1.0460000000000000          8.6123355558724536E-017
   1.0490000000000002         -3.7660977096518804E-016
   1.0520000000000000         -9.1072856449813574E-016
   1.0550000000000002         -1.4901946834299702E-015
   1.0580000000000001         -2.0801392226721902E-015
   1.0610000000000002         -2.6376970841161086E-015
   1.0640000000000001         -3.1136336041083085E-015
   1.0670000000000002         -3.4547482495352748E-015
   1.0700000000000001         -3.6070729872893579E-015
   1.0730000000000002         -3.5196890229029927E-015
   1.0760000000000001         -3.1490996320920882E-015
   1.0790000000000002         -2.4639277249341705E-015
   1.0820000000000001         -1.4495638097144776E-015
   1.0850000000000002         -1.1255828985531336E-016
   1.0880000000000001          1.5156960392533791E-015
   1.0910000000000002          3.3763588677495243E-015
   1.0940000000000001          5.3820369686347460E-015
   1.0970000000000002          7.4174341385380683E-015
