 -0.39999999999999997          0.0000000000000000     
 -0.39699999999999996          0.0000000000000000     
 -0.39399999999999996          0.0000000000000000     
 -0.39099999999999996          0.0000000000000000     
 -0.38799999999999996          0.0000000000000000     
 -0.38499999999999995          0.0000000000000000     
 -0.38199999999999995          0.0000000000000000     
 -0.37899999999999995          0.0000000000000000     
 -0.37599999999999995          0.0000000000000000     
 -0.37299999999999994          0.0000000000000000     
 -0.37000000000000000          0.0000000000000000     
 -0.36699999999999999          0.0000000000000000     
 -0.36399999999999999          0.0000000000000000     
 -0.36099999999999999          0.0000000000000000     
 -0.35799999999999998          0.0000000000000000     
 -0.35499999999999998          0.0000000000000000     
 -0.35199999999999998          0.0000000000000000     
 -0.34899999999999998          0.0000000000000000     
 -0.34599999999999997          0.0000000000000000     
 -0.34299999999999997          0.0000000000000000     
 -0.33999999999999997          0.0000000000000000     
 -0.33699999999999997          0.0000000000000000     
 -0.33399999999999996          0.0000000000000000     
 -0.33099999999999996          0.0000000000000000     
 -0.32799999999999996          0.0000000000000000     
 -0.32499999999999996          0.0000000000000000     
 -0.32199999999999995          0.0000000000000000     
 -0.31899999999999995          0.0000000000000000     
 -0.31599999999999995          0.0000000000000000     
 -0.31299999999999994          0.0000000000000000     
 -0.30999999999999994          0.0000000000000000     
 -0.30699999999999994          0.0000000000000000     
 -0.30399999999999994          0.0000000000000000     
 -0.30099999999999993          0.0000000000000000     
 -0.29799999999999993          0.0000000000000000     
 -0.29499999999999998          0.0000000000000000     
 -0.29199999999999998          0.0000000000000000     
 -0.28899999999999998          0.0000000000000000     
 -0.28599999999999998          0.0000000000000000     
 -0.28299999999999997          0.0000000000000000     
 -0.27999999999999997          0.0000000000000000     
 -0.27699999999999997          0.0000000000000000     
 -0.27399999999999997          0.0000000000000000     
 -0.27099999999999996          0.0000000000000000     
 -0.26799999999999996          0.0000000000000000     
 -0.26499999999999996          0.0000000000000000     
 -0.26199999999999996          0.0000000000000000     
 -0.25899999999999995          0.0000000000000000     
 -0.25599999999999995          0.0000000000000000     
 -0.25300000000000000          0.0000000000000000     
 -0.24999999999999997          0.0000000000000000     
 -0.24699999999999997          0.0000000000000000     
 -0.24399999999999997          0.0000000000000000     
 -0.24099999999999996          0.0000000000000000     
 -0.23799999999999996          0.0000000000000000     
 -0.23499999999999996          0.0000000000000000     
 -0.23199999999999996          0.0000000000000000     
 -0.22899999999999995          0.0000000000000000     
 -0.22599999999999995          0.0000000000000000     
 -0.22299999999999998          0.0000000000000000     
 -0.21999999999999997          0.0000000000000000     
 -0.21699999999999997          0.0000000000000000     
 -0.21399999999999997          0.0000000000000000     
 -0.21099999999999997          0.0000000000000000     
 -0.20799999999999996          0.0000000000000000     
 -0.20499999999999996          0.0000000000000000     
 -0.20199999999999996          0.0000000000000000     
 -0.19899999999999995          0.0000000000000000     
 -0.19599999999999995          0.0000000000000000     
 -0.19299999999999995          0.0000000000000000     
 -0.18999999999999997          0.0000000000000000     
 -0.18699999999999997          0.0000000000000000     
 -0.18399999999999997          0.0000000000000000     
 -0.18099999999999997          0.0000000000000000     
 -0.17799999999999996          0.0000000000000000     
 -0.17499999999999996          0.0000000000000000     
 -0.17199999999999996          0.0000000000000000     
 -0.16899999999999996          0.0000000000000000     
 -0.16599999999999995          0.0000000000000000     
 -0.16299999999999995          0.0000000000000000     
 -0.15999999999999998          0.0000000000000000     
 -0.15699999999999997          0.0000000000000000     
 -0.15399999999999997          0.0000000000000000     
 -0.15099999999999997          0.0000000000000000     
 -0.14799999999999996          0.0000000000000000     
 -0.14499999999999996          0.0000000000000000     
 -0.14199999999999996          0.0000000000000000     
 -0.13899999999999996          0.0000000000000000     
 -0.13599999999999995          0.0000000000000000     
 -0.13299999999999995          0.0000000000000000     
 -0.12999999999999995          0.0000000000000000     
 -0.12699999999999995          0.0000000000000000     
 -0.12399999999999994          0.0000000000000000     
 -0.12099999999999994          0.0000000000000000     
 -0.11799999999999994          0.0000000000000000     
 -0.11499999999999994          0.0000000000000000     
 -0.11199999999999993          0.0000000000000000     
 -0.10899999999999999          0.0000000000000000     
 -0.10599999999999998          0.0000000000000000     
 -0.10299999999999998          0.0000000000000000     
  -9.9999999999999978E-002     0.0000000000000000     
  -9.6999999999999975E-002     0.0000000000000000     
  -9.3999999999999972E-002     0.0000000000000000     
  -9.0999999999999970E-002     0.0000000000000000     
  -8.7999999999999967E-002     0.0000000000000000     
  -8.4999999999999964E-002     0.0000000000000000     
  -8.1999999999999962E-002     0.0000000000000000     
  -7.8999999999999959E-002     0.0000000000000000     
  -7.5999999999999956E-002     0.0000000000000000     
  -7.2999999999999954E-002     0.0000000000000000     
  -6.9999999999999951E-002     0.0000000000000000     
  -6.6999999999999948E-002     0.0000000000000000     
  -6.3999999999999946E-002     0.0000000000000000     
  -6.0999999999999943E-002     0.0000000000000000     
  -5.7999999999999940E-002     0.0000000000000000     
  -5.4999999999999938E-002     0.0000000000000000     
  -5.1999999999999935E-002     0.0000000000000000     
  -4.8999999999999932E-002     0.0000000000000000     
  -4.5999999999999985E-002     0.0000000000000000     
  -4.2999999999999983E-002     0.0000000000000000     
  -3.9999999999999980E-002     0.0000000000000000     
  -3.6999999999999977E-002     0.0000000000000000     
  -3.3999999999999975E-002     0.0000000000000000     
  -3.0999999999999972E-002     0.0000000000000000     
  -2.7999999999999969E-002     0.0000000000000000     
  -2.4999999999999967E-002     0.0000000000000000     
  -2.1999999999999964E-002     0.0000000000000000     
  -1.8999999999999961E-002     0.0000000000000000     
  -1.5999999999999959E-002     0.0000000000000000     
  -1.2999999999999956E-002     0.0000000000000000     
  -9.9999999999999534E-003     0.0000000000000000     
  -6.9999999999999507E-003     0.0000000000000000     
  -3.9999999999999480E-003     0.0000000000000000     
  -9.9999999999994538E-004     0.0000000000000000     
   2.0000000000000573E-003     0.0000000000000000     
   5.0000000000000600E-003     0.0000000000000000     
   8.0000000000000626E-003     0.0000000000000000     
   1.1000000000000065E-002     0.0000000000000000     
   1.4000000000000068E-002     0.0000000000000000     
   1.7000000000000015E-002     0.0000000000000000     
   2.0000000000000018E-002     0.0000000000000000     
   2.3000000000000020E-002     0.0000000000000000     
   2.6000000000000023E-002     0.0000000000000000     
   2.9000000000000026E-002     0.0000000000000000     
   3.2000000000000028E-002     0.0000000000000000     
   3.5000000000000031E-002     0.0000000000000000     
   3.8000000000000034E-002     0.0000000000000000     
   4.1000000000000036E-002     0.0000000000000000     
   4.4000000000000039E-002     0.0000000000000000     
   4.7000000000000042E-002     0.0000000000000000     
   5.0000000000000044E-002     0.0000000000000000     
   5.3000000000000047E-002     0.0000000000000000     
   5.6000000000000050E-002     0.0000000000000000     
   5.9000000000000052E-002     0.0000000000000000     
   6.2000000000000055E-002     0.0000000000000000     
   6.5000000000000058E-002     0.0000000000000000     
   6.8000000000000060E-002     0.0000000000000000     
   7.1000000000000063E-002     0.0000000000000000     
   7.4000000000000066E-002     0.0000000000000000     
   7.7000000000000068E-002     0.0000000000000000     
   8.0000000000000016E-002     0.0000000000000000     
   8.3000000000000018E-002     0.0000000000000000     
   8.6000000000000021E-002     0.0000000000000000     
   8.9000000000000024E-002     0.0000000000000000     
   9.2000000000000026E-002     0.0000000000000000     
   9.5000000000000029E-002     0.0000000000000000     
   9.8000000000000032E-002     0.0000000000000000     
  0.10100000000000003          0.0000000000000000     
  0.10400000000000004          0.0000000000000000     
  0.10700000000000004          0.0000000000000000     
  0.11000000000000004          0.0000000000000000     
  0.11300000000000004          0.0000000000000000     
  0.11600000000000005          0.0000000000000000     
  0.11900000000000005          0.0000000000000000     
  0.12200000000000005          0.0000000000000000     
  0.12500000000000006          0.0000000000000000     
  0.12800000000000006          0.0000000000000000     
  0.13100000000000006          0.0000000000000000     
  0.13400000000000006          0.0000000000000000     
  0.13700000000000007          0.0000000000000000     
  0.14000000000000007          0.0000000000000000     
  0.14300000000000007          0.0000000000000000     
  0.14600000000000007          0.0000000000000000     
  0.14900000000000008          0.0000000000000000     
  0.15200000000000008          0.0000000000000000     
  0.15500000000000008          0.0000000000000000     
  0.15800000000000008          0.0000000000000000     
  0.16100000000000009          0.0000000000000000     
  0.16400000000000009          0.0000000000000000     
  0.16700000000000009          0.0000000000000000     
  0.17000000000000010          0.0000000000000000     
  0.17300000000000010          0.0000000000000000     
  0.17600000000000010          0.0000000000000000     
  0.17899999999999999          0.0000000000000000     
  0.18200000000000000          0.0000000000000000     
  0.18500000000000000          0.0000000000000000     
  0.18800000000000000          0.0000000000000000     
  0.19100000000000000          0.0000000000000000     
  0.19400000000000001          0.0000000000000000     
  0.19700000000000001          0.0000000000000000     
  0.20000000000000001          0.0000000000000000     
  0.20300000000000001          0.0000000000000000     
  0.20600000000000002          0.0000000000000000     
  0.20900000000000002          0.0000000000000000     
  0.21200000000000002          0.0000000000000000     
  0.21500000000000002          0.0000000000000000     
  0.21800000000000003          0.0000000000000000     
  0.22100000000000003          0.0000000000000000     
  0.22400000000000003          0.0000000000000000     
  0.22700000000000004          0.0000000000000000     
  0.23000000000000004          0.0000000000000000     
  0.23300000000000004          0.0000000000000000     
  0.23600000000000004          0.0000000000000000     
  0.23900000000000005          0.0000000000000000     
  0.24200000000000005          0.0000000000000000     
  0.24500000000000005          0.0000000000000000     
  0.24800000000000005          0.0000000000000000     
  0.25100000000000006          0.0000000000000000     
  0.25400000000000006          0.0000000000000000     
  0.25700000000000006          0.0000000000000000     
  0.26000000000000006          0.0000000000000000     
  0.26300000000000007          0.0000000000000000     
  0.26600000000000007          0.0000000000000000     
  0.26900000000000007          0.0000000000000000     
  0.27200000000000008          0.0000000000000000     
  0.27500000000000008          0.0000000000000000     
  0.27800000000000008          0.0000000000000000     
  0.28100000000000008          0.0000000000000000     
  0.28400000000000009          0.0000000000000000     
  0.28700000000000009          0.0000000000000000     
  0.29000000000000009          0.0000000000000000     
  0.29300000000000009          0.0000000000000000     
  0.29600000000000010          0.0000000000000000     
  0.29900000000000010          0.0000000000000000     
  0.30200000000000010          0.0000000000000000     
  0.30499999999999999          0.0000000000000000     
  0.30800000000000000          0.0000000000000000     
  0.31100000000000000          0.0000000000000000     
  0.31400000000000000          0.0000000000000000     
  0.31700000000000000          0.0000000000000000     
  0.32000000000000001          0.0000000000000000     
  0.32300000000000001          0.0000000000000000     
  0.32600000000000001          0.0000000000000000     
  0.32900000000000001          0.0000000000000000     
  0.33200000000000002          0.0000000000000000     
  0.33500000000000002          0.0000000000000000     
  0.33800000000000002          0.0000000000000000     
  0.34100000000000003          0.0000000000000000     
  0.34400000000000003          0.0000000000000000     
  0.34700000000000003          0.0000000000000000     
  0.35000000000000003          0.0000000000000000     
  0.35300000000000004          0.0000000000000000     
  0.35600000000000004          0.0000000000000000     
  0.35900000000000004          0.0000000000000000     
  0.36200000000000004          0.0000000000000000     
  0.36500000000000005          0.0000000000000000     
  0.36800000000000005          0.0000000000000000     
  0.37100000000000005          0.0000000000000000     
  0.37400000000000005          0.0000000000000000     
  0.37700000000000006          0.0000000000000000     
  0.38000000000000006          0.0000000000000000     
  0.38300000000000006          0.0000000000000000     
  0.38600000000000007          0.0000000000000000     
  0.38900000000000007          0.0000000000000000     
  0.39200000000000007          0.0000000000000000     
  0.39500000000000007          0.0000000000000000     
  0.39800000000000008          0.0000000000000000     
  0.40100000000000008          0.0000000000000000     
  0.40400000000000008          0.0000000000000000     
  0.40700000000000008          0.0000000000000000     
  0.41000000000000009          0.0000000000000000     
  0.41300000000000009          0.0000000000000000     
  0.41600000000000009          0.0000000000000000     
  0.41900000000000009          0.0000000000000000     
  0.42200000000000010          0.0000000000000000     
  0.42500000000000010          0.0000000000000000     
  0.42800000000000010          0.0000000000000000     
  0.43100000000000011          0.0000000000000000     
  0.43400000000000000          0.0000000000000000     
  0.43700000000000000          0.0000000000000000     
  0.44000000000000000          0.0000000000000000     
  0.44300000000000000          0.0000000000000000     
  0.44600000000000001          0.0000000000000000     
  0.44900000000000001          0.0000000000000000     
  0.45200000000000001          0.0000000000000000     
  0.45500000000000002          0.0000000000000000     
  0.45800000000000002          0.0000000000000000     
  0.46100000000000002          0.0000000000000000     
  0.46400000000000002          0.0000000000000000     
  0.46700000000000003          0.0000000000000000     
  0.47000000000000003          0.0000000000000000     
  0.47300000000000003          0.0000000000000000     
  0.47600000000000003          0.0000000000000000     
  0.47900000000000004          0.0000000000000000     
  0.48200000000000004          0.0000000000000000     
  0.48500000000000004          0.0000000000000000     
  0.48800000000000004          0.0000000000000000     
  0.49100000000000005          0.0000000000000000     
  0.49400000000000005          0.0000000000000000     
  0.49700000000000005          0.0000000000000000     
  0.50000000000000000          0.0000000000000000     
  0.50300000000000011          0.0000000000000000     
  0.50600000000000001          0.0000000000000000     
  0.50900000000000012          0.0000000000000000     
  0.51200000000000001          0.0000000000000000     
  0.51500000000000012          0.0000000000000000     
  0.51800000000000002          0.0000000000000000     
  0.52100000000000013          0.0000000000000000     
  0.52400000000000002          0.0000000000000000     
  0.52700000000000014          0.0000000000000000     
  0.53000000000000003          0.0000000000000000     
  0.53300000000000014          0.0000000000000000     
  0.53600000000000003          0.0000000000000000     
  0.53900000000000015          0.0000000000000000     
  0.54200000000000004          0.0000000000000000     
  0.54500000000000015          0.0000000000000000     
  0.54800000000000004          0.0000000000000000     
  0.55100000000000016          0.0000000000000000     
  0.55400000000000005          0.0000000000000000     
  0.55700000000000016          0.0000000000000000     
  0.56000000000000005          0.0000000000000000     
  0.56299999999999994          0.0000000000000000     
  0.56600000000000006          0.0000000000000000     
  0.56899999999999995          0.0000000000000000     
  0.57200000000000006          0.0000000000000000     
  0.57499999999999996          0.0000000000000000     
  0.57800000000000007          8.3445110063430957E-042
  0.58099999999999996          1.4986293501524912E-041
  0.58400000000000007         -2.3330379328034853E-041
  0.58699999999999997          4.5214046689715675E-041
  0.59000000000000008          7.1331002563537170E-041
  0.59299999999999997          7.7344224369227461E-040
  0.59600000000000009          8.6091002509094356E-040
  0.59899999999999998          7.1497095475452207E-040
  0.60200000000000009          2.5578527253713142E-041
  0.60500000000000020         -1.9781487259547999E-040
  0.60800000000000010         -1.4687225670382630E-039
  0.61100000000000021         -2.5384704647292525E-039
  0.61400000000000010         -1.1063175607638943E-039
  0.61700000000000021         -7.7702507898463355E-040
  0.62000000000000011          4.5936542724023888E-041
  0.62300000000000022          9.7484902201672776E-040
  0.62600000000000011          3.9728998911891008E-039
  0.62900000000000000          1.2760662895895465E-039
  0.63200000000000012          1.1825458791104326E-038
  0.63500000000000001          1.3268625610893728E-038
  0.63800000000000012          1.0332162114445773E-038
  0.64100000000000001          4.1856316528432312E-039
  0.64400000000000013         -5.3324950810315650E-039
  0.64700000000000002         -2.2203886033169724E-038
  0.65000000000000013         -3.8240650296897720E-038
  0.65300000000000002         -5.1851093679627745E-038
  0.65600000000000014         -5.8092724680746676E-038
  0.65900000000000003         -5.1487846204317645E-038
  0.66200000000000014         -2.7766530741768401E-038
  0.66500000000000004          1.4095976677817909E-038
  0.66800000000000015          7.5025272048363347E-038
  0.67100000000000004          1.4427481507224467E-037
  0.67400000000000015          2.0902585949925183E-037
  0.67700000000000005          2.5008872619783576E-037
  0.68000000000000016          2.4541278207603527E-037
  0.68300000000000005          1.7447631037741967E-037
  0.68600000000000017          2.4331687151941221E-038
  0.68900000000000006         -2.0360099976911360E-037
  0.69200000000000017         -4.8739643577806761E-037
  0.69500000000000006         -7.8089005053604067E-037
  0.69800000000000018         -1.0143645272668656E-036
  0.70100000000000007         -1.1014817382703877E-036
  0.70400000000000018         -9.5341498837353964E-037
  0.70700000000000007         -4.9975937414348334E-037
  0.71000000000000019          2.8596953346453502E-037
  0.71300000000000008          1.3605037806950553E-036
  0.71600000000000019          2.5908607287648322E-036
  0.71900000000000008          3.7475963665251101E-036
  0.72200000000000020          4.5184097120147610E-036
  0.72500000000000009          4.5473830379155285E-036
  0.72800000000000020          3.5012237876871156E-036
  0.73100000000000009          1.1580299897979095E-036
  0.73400000000000021         -2.4931002502281155E-036
  0.73700000000000010         -7.1604654485643504E-036
  0.74000000000000021         -1.2190809672033069E-035
  0.74300000000000010         -1.6569970500059719E-035
  0.74600000000000022         -1.9007079293707526E-035
  0.74900000000000011         -1.8116656784793190E-035
  0.75200000000000022         -1.2696211747731362E-035
  0.75500000000000012         -2.0743289197528683E-036
  0.75800000000000001          1.3521221555308908E-035
  0.76100000000000012          3.2650313042429731E-035
  0.76400000000000001          5.2493578839289497E-035
  0.76700000000000013          6.8926076898945515E-035
  0.77000000000000002          7.6908598320875141E-035
  0.77300000000000013          7.1233245652255592E-035
  0.77600000000000002          4.7596583833965303E-035
  0.77900000000000014          3.8921124512184761E-036
  0.78200000000000003         -5.8473946205884078E-035
  0.78500000000000014         -1.3351818924213385E-034
  0.78800000000000003         -2.1018874652459767E-034
  0.79100000000000015         -2.7276719181102706E-034
  0.79400000000000004         -3.0241112769443982E-034
  0.79700000000000015         -2.7993553836228466E-034
  0.80000000000000004         -1.8970697380620222E-034
  0.80300000000000016         -2.4247654011944073E-035
  0.80600000000000005          2.1114636294442485E-034
  0.80900000000000016          4.9471965479690296E-034
  0.81200000000000006          7.8659929746414441E-034
  0.81500000000000017          1.0302309244092992E-033
  0.81800000000000006          1.1577229991414800E-033
  0.82100000000000017          1.0994167045628245E-033
  0.82400000000000007          7.9724911107988581E-034
  0.82700000000000018          2.2058034055342787E-034
  0.83000000000000007         -6.1779877345641853E-034
  0.83300000000000018         -1.6485801227886350E-033
  0.83600000000000008         -2.7393647251002697E-033
  0.83900000000000019         -3.6981319995703045E-033
  0.84200000000000008         -4.2895333210152661E-033
  0.84500000000000020         -4.2652322300782351E-033
  0.84800000000000009         -3.4072382529239034E-033
  0.85100000000000020         -1.5803172109411489E-033
  0.85400000000000009          1.2134448526962393E-033
  0.85700000000000021          4.7875480521893924E-033
  0.86000000000000010          8.7428177348670695E-033
  0.86300000000000021          1.2469540500871727E-032
  0.86600000000000010          1.5189608047851941E-032
  0.86900000000000022          1.6044012805646989E-032
  0.87200000000000011          1.4224343531631153E-032
  0.87500000000000022          9.1384544721436824E-033
  0.87800000000000011          5.9112808583372527E-034
  0.88100000000000001         -1.1048271622976553E-032
  0.88400000000000012         -2.4725642401604796E-032
  0.88700000000000001         -3.8666119686415867E-032
  0.89000000000000012         -5.0455419701493539E-032
  0.89300000000000002         -5.7261094738028077E-032
  0.89600000000000013         -5.6198519355811586E-032
  0.89900000000000002         -4.4822486679179926E-032
  0.90200000000000014         -2.1697687922792563E-032
  0.90500000000000003          1.3027109424606437E-032
  0.90800000000000014          5.7138991469629997E-032
  0.91100000000000003          1.0608661377929656E-031
  0.91400000000000015          1.5302150240865271E-031
  0.91700000000000004          1.8924370877895384E-031
  0.92000000000000015          2.0509879284643015E-031
  0.92300000000000004          1.9131081122693330E-031
  0.92600000000000016          1.4065901036756240E-031
  0.92900000000000005          4.9821405746921387E-032
  0.93200000000000016         -7.8870525312425859E-032
  0.93500000000000005         -2.3608138042128339E-031
  0.93800000000000017         -4.0486591687270261E-031
  0.94100000000000006         -5.6112451582787713E-031
  0.94400000000000017         -6.7535624021256823E-031
  0.94700000000000006         -7.1580415783728413E-031
  0.95000000000000018         -6.5289192592133904E-031
  0.95300000000000007         -4.6461699847344720E-031
  0.95600000000000018         -1.4231880770429125E-031
  0.95900000000000007          3.0397779888954315E-031
  0.96200000000000019          8.4160490753783661E-031
  0.96500000000000008          1.4136913385573919E-030
  0.96800000000000019          1.9409144480295066E-030
  0.97100000000000009          2.3272344669120056E-030
  0.97400000000000020          2.4698441929061652E-030
  0.97700000000000009          2.2729945698350431E-030
  0.98000000000000020          1.6646863921510200E-030
  0.98300000000000010          6.1448778485712050E-031
  0.98600000000000021         -8.4986527036624223E-031
  0.98900000000000010         -2.6299215761620425E-030
  0.99200000000000021         -4.5509879005502964E-030
  0.99500000000000011         -6.3663738679305648E-030
  0.99800000000000022         -7.7734559513658446E-030
   1.0010000000000001         -8.4424313770775593E-030
   1.0040000000000002         -8.0570439437011486E-030
   1.0070000000000001         -6.3646258472541930E-030
   1.0100000000000000         -3.2307607156381028E-030
   1.0130000000000001          1.3079873122052941E-030
   1.0160000000000000          7.0013749666242684E-030
   1.0190000000000001          1.3361526009452472E-029
   1.0220000000000000          1.9666139356976464E-029
   1.0250000000000001          2.4995735071614371E-029
   1.0280000000000000          2.8308755347199170E-029
   1.0310000000000001          2.8554219672888719E-029
   1.0340000000000000          2.4816292206645699E-029
   1.0370000000000001          1.6479370737726997E-029
   1.0400000000000000          3.3963118189123715E-030
   1.0430000000000001         -1.3962141955855976E-029
   1.0460000000000000         -3.4402260102389639E-029
   1.0490000000000002         -5.5972393533597872E-029
   1.0520000000000000         -7.6021522371221871E-029
   1.0550000000000002         -9.1368031311812926E-029
   1.0580000000000001         -9.8585156808885640E-029
   1.0610000000000002         -9.4395764014599810E-029
   1.0640000000000001         -7.6152853887957351E-029
   1.0670000000000002         -4.2364626561717323E-029
   1.0700000000000001          6.7930431190879684E-030
   1.0730000000000002          6.9047708165333040E-029
   1.0760000000000001          1.3976239258640835E-028
   1.0790000000000002          2.1190604343480701E-028
   1.0820000000000001          2.7632821993654204E-028
   1.0850000000000002          3.2238181980752681E-028
   1.0880000000000001          3.3890483292967093E-028
   1.0910000000000002          3.1552818573442630E-028
   1.0940000000000001          2.4422815197564569E-028
   1.0970000000000002          1.2098846844499832E-028
