 -0.39999999999999997          0.0000000000000000     
 -0.39699999999999996          0.0000000000000000     
 -0.39399999999999996          0.0000000000000000     
 -0.39099999999999996          0.0000000000000000     
 -0.38799999999999996          0.0000000000000000     
 -0.38499999999999995          0.0000000000000000     
 -0.38199999999999995          0.0000000000000000     
 -0.37899999999999995          0.0000000000000000     
 -0.37599999999999995          0.0000000000000000     
 -0.37299999999999994          0.0000000000000000     
 -0.37000000000000000          0.0000000000000000     
 -0.36699999999999999          0.0000000000000000     
 -0.36399999999999999          0.0000000000000000     
 -0.36099999999999999          0.0000000000000000     
 -0.35799999999999998          0.0000000000000000     
 -0.35499999999999998          0.0000000000000000     
 -0.35199999999999998          0.0000000000000000     
 -0.34899999999999998          0.0000000000000000     
 -0.34599999999999997          0.0000000000000000     
 -0.34299999999999997          0.0000000000000000     
 -0.33999999999999997          0.0000000000000000     
 -0.33699999999999997          0.0000000000000000     
 -0.33399999999999996          0.0000000000000000     
 -0.33099999999999996          0.0000000000000000     
 -0.32799999999999996          0.0000000000000000     
 -0.32499999999999996          0.0000000000000000     
 -0.32199999999999995          0.0000000000000000     
 -0.31899999999999995          0.0000000000000000     
 -0.31599999999999995          0.0000000000000000     
 -0.31299999999999994         -5.1406386355585598E-041
 -0.30999999999999994          3.2237264180762974E-039
 -0.30699999999999994         -7.5952511730399206E-039
 -0.30399999999999994          1.2073628195586409E-039
 -0.30099999999999993          1.4548045497095615E-037
 -0.29799999999999993         -4.2119337772450323E-037
 -0.29499999999999998         -2.2035550618801654E-037
 -0.29199999999999998          4.2687453261729537E-036
 -0.28899999999999998         -7.5962418393012251E-036
 -0.28599999999999998         -1.8467984126556901E-035
 -0.28299999999999997          9.0704985296108671E-035
 -0.27999999999999997         -1.9349967734465734E-035
 -0.27699999999999997         -5.8708270257054756E-034
 -0.27399999999999997          9.3744939680305624E-034
 -0.27099999999999996          2.4642218445337549E-033
 -0.26799999999999996         -8.4039003032612415E-033
 -0.26499999999999996         -5.3008858983408531E-033
 -0.26199999999999996          5.1106149400221615E-032
 -0.25899999999999995         -1.5878555942257769E-032
 -0.25599999999999995         -2.4718925477641983E-031
 -0.25300000000000000          2.5007499387262446E-031
 -0.24999999999999997          1.0098946543286622E-030
 -0.24699999999999997         -1.7010747693356977E-030
 -0.24399999999999997         -3.5999413148222060E-030
 -0.24099999999999996          8.7819825535415114E-030
 -0.23799999999999996          1.1467477658430750E-029
 -0.23499999999999996         -3.8532648529161729E-029
 -0.23199999999999996         -3.3525904344281635E-029
 -0.22899999999999995          1.5038304191132935E-028
 -0.22599999999999995          9.3720328020124053E-029
 -0.22299999999999998         -5.3395990557517837E-028
 -0.21999999999999997         -2.6644420234212787E-028
 -0.21699999999999997          1.7434726029217181E-027
 -0.21399999999999997          8.1830084313813622E-028
 -0.21099999999999997         -5.2461782046442612E-027
 -0.20799999999999996         -2.7354981391206018E-027
 -0.20499999999999996          1.4458992357718587E-026
 -0.20199999999999996          9.4160562525056595E-027
 -0.19899999999999995         -3.5908982148786970E-026
 -0.19599999999999995         -3.1094678913484743E-026
 -0.19299999999999995          7.7720514707623891E-026
 -0.18999999999999997          9.3199042470802703E-026
 -0.18699999999999997         -1.3610961587178060E-025
 -0.18399999999999997         -2.4192224078125180E-025
 -0.18099999999999997          1.5126037138312681E-025
 -0.17799999999999996          5.0902104062479617E-025
 -0.17499999999999996          7.5480239135607380E-026
 -0.17199999999999996         -7.2809614928235043E-025
 -0.16899999999999996         -9.0014608011707688E-025
 -0.16599999999999995          4.7767809185691528E-026
 -0.16299999999999995          2.3371898308163954E-024
 -0.15999999999999998          3.6909189422652547E-024
 -0.15699999999999997         -2.0847864889363718E-024
 -0.15399999999999997         -1.3048162893489043E-023
 -0.15099999999999997         -8.2289314732632457E-024
 -0.14799999999999996          2.3888307012339591E-023
 -0.14499999999999996          4.3170546324568736E-023
 -0.14199999999999996         -7.5468830572652349E-024
 -0.13899999999999996         -1.0022335969318602E-022
 -0.13599999999999995         -1.0196333226732817E-022
 -0.13299999999999995          8.5719319766534941E-023
 -0.12999999999999995          3.3803771337750975E-022
 -0.12699999999999995          2.6753114035890881E-022
 -0.12399999999999994         -4.1832321665693211E-022
 -0.12099999999999994         -1.1979155623644095E-021
 -0.11799999999999994         -6.4323618193752605E-022
 -0.11499999999999994          1.8752267009560138E-021
 -0.11199999999999993          3.9473215514669270E-021
 -0.10899999999999999          1.1909596696465615E-021
 -0.10599999999999998         -6.9804666400824781E-021
 -0.10299999999999998         -1.2331552931708120E-020
  -9.9999999999999978E-002    -2.3316078666616414E-021
  -9.6999999999999975E-002     2.3537366200602644E-020
  -9.3999999999999972E-002     3.9300971006409810E-020
  -9.0999999999999970E-002     6.1006774422580300E-021
  -8.7999999999999967E-002    -7.6369173075825999E-020
  -8.4999999999999964E-002    -1.2563593861450327E-019
  -8.1999999999999962E-002    -2.2579092741891804E-020
  -7.8999999999999959E-002     2.3341998076169773E-019
  -7.5999999999999956E-002     3.9857434620862011E-019
  -7.2999999999999954E-002     1.1253279513207873E-019
  -6.9999999999999951E-002    -6.6459790696206341E-019
  -6.6999999999999948E-002    -1.2573847933011994E-018
  -6.3999999999999946E-002    -5.6018980891359910E-019
  -6.0999999999999943E-002     1.7367920411999632E-018
  -5.7999999999999940E-002     3.8701114520300406E-018
  -5.4999999999999938E-002     2.5151947296669428E-018
  -5.1999999999999935E-002    -3.9281308501984451E-018
  -4.8999999999999932E-002    -1.1347944415353635E-017
  -4.5999999999999985E-002    -1.0181534297167104E-017
  -4.2999999999999983E-002     6.4911018579597537E-018
  -3.9999999999999980E-002     3.0872565872684282E-017
  -3.6999999999999977E-002     3.7118124936484875E-017
  -3.3999999999999975E-002    -7.8830112300224318E-019
  -3.0999999999999972E-002    -7.4568403234633794E-017
  -2.7999999999999969E-002    -1.2103239407406816E-016
  -2.4999999999999967E-002    -5.4112486514084070E-017
  -2.1999999999999964E-002     1.4566192277426158E-016
  -1.8999999999999961E-002     3.4742807647951657E-016
  -1.5999999999999959E-002     3.0068847141922106E-016
  -1.2999999999999956E-002    -1.6091778584303550E-016
  -9.9999999999999534E-003    -8.4519973157809135E-016
  -6.9999999999999507E-003    -1.1259834619334635E-015
  -3.9999999999999480E-003    -3.1741092659967837E-016
  -9.9999999999994538E-004     1.5758862483146621E-015
   2.0000000000000573E-003     3.2944827811619319E-015
   5.0000000000000600E-003     2.7300664393477127E-015
   8.0000000000000626E-003    -1.3972098090678257E-015
   1.1000000000000065E-002    -7.4600041860164478E-015
   1.4000000000000068E-002    -1.0399945109976564E-014
   1.7000000000000015E-002    -4.4933767760895276E-015
   2.0000000000000018E-002     1.1072738151483637E-014
   2.3000000000000020E-002     2.7578075612000228E-014
   2.6000000000000023E-002     2.8573309638768899E-014
   2.9000000000000026E-002     9.2038722952482851E-016
   3.2000000000000028E-002    -4.9446993072623581E-014
   3.5000000000000031E-002    -8.9397825180315058E-014
   3.8000000000000034E-002    -7.1482901218198122E-014
   4.1000000000000036E-002     3.0098019219662600E-014
   4.4000000000000039E-002     1.7914847802243549E-013
   4.7000000000000042E-002     2.6816271335601959E-013
   5.0000000000000044E-002     1.6977734833548650E-013
   5.3000000000000047E-002    -1.5831489255791344E-013
   5.6000000000000050E-002    -5.7631833356876957E-013
   5.9000000000000052E-002    -7.6681340912811535E-013
   6.2000000000000055E-002    -4.0229819834558292E-013
   6.5000000000000058E-002     5.6983131767930442E-013
   6.8000000000000060E-002     1.7028837271267262E-012
   7.1000000000000063E-002     2.1210468182886809E-012
   7.4000000000000066E-002     1.0035749854290645E-012
   7.7000000000000068E-002    -1.6825411865208937E-012
   8.0000000000000016E-002    -4.6755070769999600E-012
   8.3000000000000018E-002    -5.6940899301158035E-012
   8.6000000000000021E-002    -2.7143748913088960E-012
   8.9000000000000024E-002     4.2376073851634138E-012
   9.2000000000000026E-002     1.1947554386714777E-011
   9.5000000000000029E-002     1.4792966132594837E-011
   9.8000000000000032E-002     7.8340823796270373E-012
  0.10100000000000003         -9.0100296962881215E-012
  0.10400000000000004         -2.8371288804410545E-011
  0.10700000000000004         -3.7166344751433250E-011
  0.11000000000000004         -2.3408690709853883E-011
  0.11300000000000004          1.4568612085976388E-011
  0.11600000000000005          6.2051357563347126E-011
  0.11900000000000005          9.0665025881977915E-011
  0.12200000000000005          7.1580990565905848E-011
  0.12500000000000006         -5.6128916830814416E-012
  0.12800000000000006         -1.1865296154181723E-010
  0.13100000000000006         -2.1355089179895590E-010
  0.13400000000000006         -2.2485418039623933E-010
  0.13700000000000007         -1.0853462805232866E-010
  0.14000000000000007          1.2825180267693273E-010
  0.14300000000000007          4.1749067112521343E-010
  0.14600000000000007          6.4887418228095722E-010
  0.14900000000000008          7.1004276151107054E-010
  0.15200000000000008          5.2962280967958981E-010
  0.15500000000000008          1.0215027736679926E-010
  0.15800000000000008         -5.1611911753340943E-010
  0.16100000000000009         -1.2355144154983276E-009
  0.16400000000000009         -1.9684108735429661E-009
  0.16700000000000009         -2.6541772632613893E-009
  0.17000000000000010         -3.2665257833188795E-009
  0.17300000000000010         -3.8092019090109460E-009
  0.17600000000000010         -4.3120965596314728E-009
  0.17899999999999999         -4.8340705973900589E-009
  0.18200000000000000         -5.4670832041996178E-009
  0.18500000000000000         -6.3287763123285230E-009
  0.18800000000000000         -7.5356179621440953E-009
  0.19100000000000000         -9.1646801977791262E-009
  0.19400000000000001         -1.1226721380358877E-008
  0.19700000000000001         -1.3673045015012746E-008
  0.20000000000000001         -1.6441191448034235E-008
  0.20300000000000001         -1.9518576091963444E-008
  0.20600000000000002         -2.2987433615116804E-008
  0.20900000000000002         -2.7022222917120616E-008
  0.21200000000000002         -3.1838540489399865E-008
  0.21500000000000002         -3.7625497915657383E-008
  0.21800000000000003         -4.4504594582933914E-008
  0.22100000000000003         -5.2543919991856848E-008
  0.22400000000000003         -6.1818319245499805E-008
  0.22700000000000004         -7.2478684721824486E-008
  0.23000000000000004         -8.4783645451499924E-008
  0.23300000000000004         -9.9076764944686448E-008
  0.23600000000000004         -1.1572583983599948E-007
  0.23900000000000005         -1.3506553627867856E-007
  0.24200000000000005         -1.5738058193239281E-007
  0.24500000000000005         -1.8294477919442997E-007
  0.24800000000000005         -2.1208446065559671E-007
  0.25100000000000006         -2.4522919167478028E-007
  0.25400000000000006         -2.8292351091857210E-007
  0.25700000000000006         -3.2580030477200273E-007
  0.26000000000000006         -3.7453970546879420E-007
  0.26300000000000007         -4.2983569609430335E-007
  0.26600000000000007         -4.9240317524156079E-007
  0.26900000000000007         -5.6300377814769840E-007
  0.27200000000000008         -6.4246978527487751E-007
  0.27500000000000008         -7.3171794352285501E-007
  0.27800000000000008         -8.3173793960318815E-007
  0.28100000000000008         -9.4358272795502655E-007
  0.28400000000000009         -1.0683579069232481E-006
  0.28700000000000009         -1.2072225289944063E-006
  0.29000000000000009         -1.3613852623853254E-006
  0.29300000000000009         -1.5321468853331993E-006
  0.29600000000000010         -1.7208488571762495E-006
  0.29900000000000010         -1.9288779823269723E-006
  0.30200000000000010         -2.1576413697296892E-006
  0.30499999999999999         -2.4085436672944244E-006
  0.30800000000000000         -2.6830008282558938E-006
  0.31100000000000000         -2.9824255376885745E-006
  0.31400000000000000         -3.3082498785686300E-006
  0.31700000000000000         -3.6618826411995149E-006
  0.32000000000000001         -4.0447175712126941E-006
  0.32300000000000001         -4.4580144571658369E-006
  0.32600000000000001         -4.9028984371452944E-006
  0.32900000000000001         -5.3803735278076794E-006
  0.33200000000000002         -5.8912594685360429E-006
  0.33500000000000002         -6.4361661275825197E-006
  0.33800000000000002         -7.0155752299366813E-006
  0.34100000000000003         -7.6296758650531505E-006
  0.34400000000000003         -8.2783803520203848E-006
  0.34700000000000003         -8.9611812700696548E-006
  0.35000000000000003         -9.6772637126460017E-006
  0.35300000000000004         -1.0425352651730325E-005
  0.35600000000000004         -1.1203807677216181E-005
  0.35900000000000004         -1.2010421729276022E-005
  0.36200000000000004         -1.2842674187901885E-005
  0.36500000000000005         -1.3697417396164647E-005
  0.36800000000000005         -1.4570789461267698E-005
  0.37100000000000005         -1.5458448040801962E-005
  0.37400000000000005         -1.6355353006082575E-005
  0.37700000000000006         -1.7255947800551683E-005
  0.38000000000000006         -1.8154051852834339E-005
  0.38300000000000006         -1.9042874741069067E-005
  0.38600000000000007         -1.9914871643040239E-005
  0.38900000000000007         -2.0761995867992088E-005
  0.39200000000000007         -2.1575563291179816E-005
  0.39500000000000007         -2.2346520270210095E-005
  0.39800000000000008         -2.3065105575038404E-005
  0.40100000000000008         -2.3721455395398260E-005
  0.40400000000000008         -2.4304716264764375E-005
  0.40700000000000008         -2.4804144571725439E-005
  0.41000000000000009         -2.5208752695136491E-005
  0.41300000000000009         -2.5507542442410019E-005
  0.41600000000000009         -2.5689495543954623E-005
  0.41900000000000009         -2.5743604436903012E-005
  0.42200000000000010         -2.5659346380084100E-005
  0.42500000000000010         -2.5426469201851390E-005
  0.42800000000000010         -2.5035079380030212E-005
  0.43100000000000011         -2.4476008516574433E-005
  0.43400000000000000         -2.3740893871250923E-005
  0.43700000000000000         -2.2822768655503955E-005
  0.44000000000000000         -2.1715297054798533E-005
  0.44300000000000000         -2.0413716112143735E-005
  0.44600000000000001         -1.8914588942777168E-005
  0.44900000000000001         -1.7215853095095566E-005
  0.45200000000000001         -1.5317276604889976E-005
  0.45500000000000002         -1.3220420230341887E-005
  0.45800000000000002         -1.0928835516344290E-005
  0.46100000000000002         -8.4474360951089030E-006
  0.46400000000000002         -5.7841709851259925E-006
  0.46700000000000003         -2.9481035169637196E-006
  0.47000000000000003          4.9293181728115065E-008
  0.47300000000000003          3.1946430766075275E-006
  0.47600000000000003          6.4728444805817529E-006
  0.47900000000000004          9.8656998441215781E-006
  0.48200000000000004          1.3354372969356858E-005
  0.48500000000000004          1.6917724794766584E-005
  0.48800000000000004          2.0533035921660382E-005
  0.49100000000000005          2.4176380103866903E-005
  0.49400000000000005          2.7822909713168527E-005
  0.49700000000000005          3.1446152332619402E-005
  0.50000000000000000          3.5018816752993697E-005
  0.50300000000000011          3.8513557530441914E-005
  0.50600000000000001          4.1902394992801745E-005
  0.50900000000000012          4.5157911579411261E-005
  0.51200000000000001          4.8252726491476784E-005
  0.51500000000000012          5.1160173178004073E-005
  0.51800000000000002          5.3854263929054992E-005
  0.52100000000000013          5.6310566696780981E-005
  0.52400000000000002          5.8505858128615648E-005
  0.52700000000000014          6.0418859422135173E-005
  0.53000000000000003          6.2030567029719389E-005
  0.53300000000000014          6.3324092821833463E-005
  0.53600000000000003          6.4285172907875543E-005
  0.53900000000000015          6.4902174084077160E-005
  0.54200000000000004          6.5166098805258821E-005
  0.54500000000000015          6.5071505320303492E-005
  0.54800000000000004          6.4615704738996696E-005
  0.55100000000000016          6.3799235538326355E-005
  0.55400000000000005          6.2625807367686640E-005
  0.55700000000000016          6.1102592054372717E-005
  0.56000000000000005          5.9239388753423543E-005
  0.56299999999999994          5.7049467542250482E-005
  0.56600000000000006          5.4548790338368413E-005
  0.56899999999999995          5.1756405361551431E-005
  0.57200000000000006          4.8693159084665386E-005
  0.57499999999999996          4.5382263328117280E-005
  0.57800000000000007          4.1849504340174887E-005
  0.58099999999999996          3.8122404187684548E-005
  0.58400000000000007          3.4230075246085312E-005
  0.58699999999999997          3.0202472199370527E-005
  0.59000000000000008          2.6070789518038714E-005
  0.59299999999999997          2.1865767421675373E-005
  0.59600000000000009          1.7619011797919306E-005
  0.59899999999999998          1.3361854333195469E-005
  0.60200000000000009          9.1250010727130903E-006
  0.60500000000000020          4.9391100670107896E-006
  0.60800000000000010          8.3266397861058589E-007
  0.61100000000000021         -3.1664486222801640E-006
  0.61400000000000010         -7.0322984793517589E-006
  0.61700000000000021         -1.0740684074707178E-005
  0.62000000000000011         -1.4269801803713324E-005
  0.62300000000000022         -1.7599481582598251E-005
  0.62600000000000011         -2.0712354281941699E-005
  0.62900000000000000         -2.3593503899386436E-005
  0.63200000000000012         -2.6230221375772122E-005
  0.63500000000000001         -2.8613059614758878E-005
  0.63800000000000012         -3.0734394621255697E-005
  0.64100000000000001         -3.2589603630408376E-005
  0.64400000000000013         -3.4176821867602253E-005
  0.64700000000000002         -3.5495770452995834E-005
  0.65000000000000013         -3.6549353374954595E-005
  0.65300000000000002         -3.7342690521631935E-005
  0.65600000000000014         -3.7882714608475937E-005
  0.65900000000000003         -3.8177687931339027E-005
  0.66200000000000014         -3.8238487060090958E-005
  0.66500000000000004         -3.8076987780197663E-005
  0.66800000000000015         -3.7706537607400500E-005
  0.67100000000000004         -3.7141415840396042E-005
  0.67400000000000015         -3.6397471549332795E-005
  0.67700000000000005         -3.5490674671365244E-005
  0.68000000000000016         -3.4437203718204953E-005
  0.68300000000000005         -3.3253776487739302E-005
  0.68600000000000017         -3.1957733740028838E-005
  0.68900000000000006         -3.0566000049174252E-005
  0.69200000000000017         -2.9094570390867266E-005
  0.69500000000000006         -2.7560151075238386E-005
  0.69800000000000018         -2.5978532083654922E-005
  0.70100000000000007         -2.4364068062983766E-005
  0.70400000000000018         -2.2730591810812722E-005
  0.70700000000000007         -2.1092075179187468E-005
  0.71000000000000019         -1.9461073346666870E-005
  0.71300000000000008         -1.7848525378106081E-005
  0.71600000000000019         -1.6264840507298129E-005
  0.71900000000000008         -1.4719798770938711E-005
  0.72200000000000020         -1.3221154172832142E-005
  0.72500000000000009         -1.1775425247941691E-005
  0.72800000000000020         -1.0389086429716562E-005
  0.73100000000000009         -9.0676332435274354E-006
  0.73400000000000021         -7.8145489890800870E-006
  0.73700000000000010         -6.6326986431239170E-006
  0.74000000000000021         -5.5248573724873220E-006
  0.74300000000000010         -4.4923456223098369E-006
  0.74600000000000022         -3.5350443097455098E-006
  0.74900000000000011         -2.6529116849411028E-006
  0.75200000000000022         -1.8456528811755235E-006
  0.75500000000000012         -1.1114469098919069E-006
  0.75800000000000001         -4.4790573347110186E-007
  0.76100000000000012          1.4681210146308580E-007
  0.76400000000000001          6.7500218231527199E-007
  0.76700000000000013          1.1402717591133024E-006
  0.77000000000000002          1.5459800504345357E-006
  0.77300000000000013          1.8949676012253419E-006
  0.77600000000000002          2.1909602118150325E-006
  0.77900000000000014          2.4382462015710146E-006
  0.78200000000000003          2.6402696530859839E-006
  0.78500000000000014          2.8001982656732479E-006
  0.78800000000000003          2.9219898375683765E-006
  0.79100000000000015          3.0095432970282028E-006
  0.79400000000000004          3.0657661078104330E-006
  0.79700000000000015          3.0938680639275346E-006
  0.80000000000000004          3.0975170512822188E-006
  0.80300000000000016          3.0797264454167123E-006
  0.80600000000000005          3.0427938557575729E-006
  0.80900000000000016          2.9895369002495278E-006
  0.81200000000000006          2.9227584187715580E-006
  0.81500000000000017          2.8444493354623129E-006
  0.81800000000000006          2.7564613409757863E-006
  0.82100000000000017          2.6610307165075316E-006
  0.82400000000000007          2.5600683228169149E-006
  0.82700000000000018          2.4546836653818762E-006
  0.83000000000000007          2.3461727706924378E-006
  0.83300000000000018          2.2360808935718545E-006
  0.83600000000000008          2.1254073379170570E-006
  0.83900000000000019          2.0148559233079442E-006
  0.84200000000000008          1.9054676943039541E-006
  0.84500000000000020          1.7981361189608273E-006
  0.84800000000000009          1.6930887263428619E-006
  0.85100000000000020          1.5905255845719106E-006
  0.85400000000000009          1.4910186350033379E-006
  0.85700000000000021          1.3949952788265871E-006
  0.86000000000000010          1.3026141937881611E-006
  0.86300000000000021          1.2141808724563562E-006
  0.86600000000000010          1.1299774418940505E-006
  0.86900000000000022          1.0498166020825675E-006
  0.87200000000000011          9.7338042985660963E-007
  0.87500000000000022          9.0071186867262629E-007
  0.87800000000000011          8.3200930699582161E-007
  0.88100000000000001          7.6727317780964666E-007
  0.88400000000000012          7.0642329900207274E-007
  0.88700000000000001          6.4941954537287655E-007
  0.89000000000000012          5.9605420718922886E-007
  0.89300000000000002          5.4594734336031314E-007
  0.89600000000000013          4.9892679979355766E-007
  0.89900000000000002          4.5513000307621654E-007
  0.90200000000000014          4.1458625882280446E-007
  0.90500000000000003          3.7700473561319793E-007
  0.90800000000000014          3.4213007041085386E-007
  0.91100000000000003          3.0988794757998627E-007
  0.91400000000000015          2.8007067302103257E-007
  0.91700000000000004          2.5239253922407351E-007
  0.92000000000000015          2.2691027673313159E-007
  0.92300000000000004          2.0378876447571145E-007
  0.92600000000000016          1.8273063718907298E-007
  0.92900000000000005          1.6331938426046250E-007
  0.93200000000000016          1.4561459858161488E-007
  0.93500000000000005          1.2966323280963428E-007
  0.93800000000000017          1.1507288630254998E-007
  0.94100000000000006          1.0167028660951907E-007
  0.94400000000000017          8.9753780962625264E-008
  0.94700000000000006          7.9193138444934612E-008
  0.95000000000000018          6.9445059847447384E-008
  0.95300000000000007          6.0568437101578719E-008
  0.95600000000000018          5.2877972122692441E-008
  0.95900000000000007          4.5986845066440345E-008
  0.96200000000000019          3.9468620050515012E-008
  0.96500000000000008          3.3677185179484045E-008
  0.96800000000000019          2.8775893901112138E-008
  0.97100000000000009          2.4166569240739183E-008
  0.97400000000000020          1.9706129722724128E-008
  0.97700000000000009          1.5896059467691936E-008
  0.98000000000000020          1.2541988969657441E-008
  0.98300000000000010          9.0366062097410248E-009
  0.98600000000000021          5.6726435791235490E-009
  0.98900000000000010          2.8933253289294153E-009
  0.99200000000000021          1.6137142317819950E-010
  0.99500000000000011         -2.9259376606881910E-009
  0.99800000000000022         -5.8272290305553355E-009
   1.0010000000000001         -8.3966099087998191E-009
   1.0040000000000002         -1.1223368032360816E-008
   1.0070000000000001         -1.4228752985132357E-008
   1.0100000000000000         -1.6842474733189038E-008
   1.0130000000000001         -1.9401057818811217E-008
   1.0160000000000000         -2.2473698158832207E-008
   1.0190000000000001         -2.5639375490057078E-008
   1.0220000000000000         -2.8456529156353746E-008
   1.0250000000000001         -3.1356770399230577E-008
   1.0280000000000000         -3.4500790064210436E-008
   1.0310000000000001         -3.7415216640104642E-008
   1.0340000000000000         -4.0167719975364036E-008
   1.0370000000000001         -4.3257304941406446E-008
   1.0400000000000000         -4.6450769290453917E-008
   1.0430000000000001         -4.9247629391598025E-008
   1.0460000000000000         -5.1849043150708384E-008
   1.0490000000000002         -5.4545121118908462E-008
   1.0520000000000000         -5.7105319012051380E-008
   1.0550000000000002         -5.9421881573482340E-008
   1.0580000000000001         -6.1733347236197906E-008
   1.0610000000000002         -6.3973151902441401E-008
   1.0640000000000001         -6.5852056166053534E-008
   1.0670000000000002         -6.7415705948970598E-008
   1.0700000000000001         -6.8856292233296662E-008
   1.0730000000000002         -7.0160215147181821E-008
   1.0760000000000001         -7.1262018140483755E-008
   1.0790000000000002         -7.2122307672796765E-008
   1.0820000000000001         -7.2667105499068750E-008
   1.0850000000000002         -7.2943244647926966E-008
   1.0880000000000001         -7.3019044128718820E-008
   1.0910000000000002         -7.2800515062711096E-008
   1.0940000000000001         -7.2316060206738802E-008
   1.0970000000000002         -7.1771829391088589E-008
