 -0.39999999999999997          0.0000000000000000     
 -0.39699999999999996          0.0000000000000000     
 -0.39399999999999996          0.0000000000000000     
 -0.39099999999999996          0.0000000000000000     
 -0.38799999999999996          0.0000000000000000     
 -0.38499999999999995          0.0000000000000000     
 -0.38199999999999995          0.0000000000000000     
 -0.37899999999999995          0.0000000000000000     
 -0.37599999999999995          0.0000000000000000     
 -0.37299999999999994          0.0000000000000000     
 -0.37000000000000000          0.0000000000000000     
 -0.36699999999999999          0.0000000000000000     
 -0.36399999999999999          0.0000000000000000     
 -0.36099999999999999          0.0000000000000000     
 -0.35799999999999998          0.0000000000000000     
 -0.35499999999999998          0.0000000000000000     
 -0.35199999999999998          0.0000000000000000     
 -0.34899999999999998          0.0000000000000000     
 -0.34599999999999997          0.0000000000000000     
 -0.34299999999999997          0.0000000000000000     
 -0.33999999999999997          0.0000000000000000     
 -0.33699999999999997          0.0000000000000000     
 -0.33399999999999996          0.0000000000000000     
 -0.33099999999999996          0.0000000000000000     
 -0.32799999999999996          0.0000000000000000     
 -0.32499999999999996          0.0000000000000000     
 -0.32199999999999995          0.0000000000000000     
 -0.31899999999999995          0.0000000000000000     
 -0.31599999999999995          0.0000000000000000     
 -0.31299999999999994          0.0000000000000000     
 -0.30999999999999994          0.0000000000000000     
 -0.30699999999999994          0.0000000000000000     
 -0.30399999999999994          0.0000000000000000     
 -0.30099999999999993          0.0000000000000000     
 -0.29799999999999993          0.0000000000000000     
 -0.29499999999999998          0.0000000000000000     
 -0.29199999999999998          0.0000000000000000     
 -0.28899999999999998          0.0000000000000000     
 -0.28599999999999998          0.0000000000000000     
 -0.28299999999999997          0.0000000000000000     
 -0.27999999999999997          0.0000000000000000     
 -0.27699999999999997          0.0000000000000000     
 -0.27399999999999997          0.0000000000000000     
 -0.27099999999999996          0.0000000000000000     
 -0.26799999999999996          0.0000000000000000     
 -0.26499999999999996          0.0000000000000000     
 -0.26199999999999996          0.0000000000000000     
 -0.25899999999999995          0.0000000000000000     
 -0.25599999999999995          0.0000000000000000     
 -0.25300000000000000          0.0000000000000000     
 -0.24999999999999997          0.0000000000000000     
 -0.24699999999999997          0.0000000000000000     
 -0.24399999999999997          0.0000000000000000     
 -0.24099999999999996          0.0000000000000000     
 -0.23799999999999996          0.0000000000000000     
 -0.23499999999999996          0.0000000000000000     
 -0.23199999999999996          0.0000000000000000     
 -0.22899999999999995          0.0000000000000000     
 -0.22599999999999995          0.0000000000000000     
 -0.22299999999999998          0.0000000000000000     
 -0.21999999999999997          0.0000000000000000     
 -0.21699999999999997          0.0000000000000000     
 -0.21399999999999997          0.0000000000000000     
 -0.21099999999999997          0.0000000000000000     
 -0.20799999999999996          0.0000000000000000     
 -0.20499999999999996          0.0000000000000000     
 -0.20199999999999996          0.0000000000000000     
 -0.19899999999999995          0.0000000000000000     
 -0.19599999999999995          0.0000000000000000     
 -0.19299999999999995          0.0000000000000000     
 -0.18999999999999997          0.0000000000000000     
 -0.18699999999999997          0.0000000000000000     
 -0.18399999999999997          0.0000000000000000     
 -0.18099999999999997          0.0000000000000000     
 -0.17799999999999996          0.0000000000000000     
 -0.17499999999999996          0.0000000000000000     
 -0.17199999999999996          0.0000000000000000     
 -0.16899999999999996          0.0000000000000000     
 -0.16599999999999995          0.0000000000000000     
 -0.16299999999999995          0.0000000000000000     
 -0.15999999999999998          0.0000000000000000     
 -0.15699999999999997          0.0000000000000000     
 -0.15399999999999997          0.0000000000000000     
 -0.15099999999999997          0.0000000000000000     
 -0.14799999999999996          0.0000000000000000     
 -0.14499999999999996          0.0000000000000000     
 -0.14199999999999996          0.0000000000000000     
 -0.13899999999999996          0.0000000000000000     
 -0.13599999999999995          0.0000000000000000     
 -0.13299999999999995          0.0000000000000000     
 -0.12999999999999995          0.0000000000000000     
 -0.12699999999999995          0.0000000000000000     
 -0.12399999999999994          0.0000000000000000     
 -0.12099999999999994          0.0000000000000000     
 -0.11799999999999994          0.0000000000000000     
 -0.11499999999999994          0.0000000000000000     
 -0.11199999999999993          0.0000000000000000     
 -0.10899999999999999          0.0000000000000000     
 -0.10599999999999998          0.0000000000000000     
 -0.10299999999999998          0.0000000000000000     
  -9.9999999999999978E-002     0.0000000000000000     
  -9.6999999999999975E-002     0.0000000000000000     
  -9.3999999999999972E-002     0.0000000000000000     
  -9.0999999999999970E-002     0.0000000000000000     
  -8.7999999999999967E-002     0.0000000000000000     
  -8.4999999999999964E-002     0.0000000000000000     
  -8.1999999999999962E-002     0.0000000000000000     
  -7.8999999999999959E-002     0.0000000000000000     
  -7.5999999999999956E-002     0.0000000000000000     
  -7.2999999999999954E-002     0.0000000000000000     
  -6.9999999999999951E-002     0.0000000000000000     
  -6.6999999999999948E-002     0.0000000000000000     
  -6.3999999999999946E-002     0.0000000000000000     
  -6.0999999999999943E-002     0.0000000000000000     
  -5.7999999999999940E-002     0.0000000000000000     
  -5.4999999999999938E-002     0.0000000000000000     
  -5.1999999999999935E-002     0.0000000000000000     
  -4.8999999999999932E-002     0.0000000000000000     
  -4.5999999999999985E-002     0.0000000000000000     
  -4.2999999999999983E-002     0.0000000000000000     
  -3.9999999999999980E-002     0.0000000000000000     
  -3.6999999999999977E-002     0.0000000000000000     
  -3.3999999999999975E-002     0.0000000000000000     
  -3.0999999999999972E-002     0.0000000000000000     
  -2.7999999999999969E-002     0.0000000000000000     
  -2.4999999999999967E-002     0.0000000000000000     
  -2.1999999999999964E-002     0.0000000000000000     
  -1.8999999999999961E-002     0.0000000000000000     
  -1.5999999999999959E-002     0.0000000000000000     
  -1.2999999999999956E-002     0.0000000000000000     
  -9.9999999999999534E-003     0.0000000000000000     
  -6.9999999999999507E-003     0.0000000000000000     
  -3.9999999999999480E-003     0.0000000000000000     
  -9.9999999999994538E-004     0.0000000000000000     
   2.0000000000000573E-003     0.0000000000000000     
   5.0000000000000600E-003     0.0000000000000000     
   8.0000000000000626E-003     0.0000000000000000     
   1.1000000000000065E-002     0.0000000000000000     
   1.4000000000000068E-002     0.0000000000000000     
   1.7000000000000015E-002     0.0000000000000000     
   2.0000000000000018E-002     0.0000000000000000     
   2.3000000000000020E-002     0.0000000000000000     
   2.6000000000000023E-002     0.0000000000000000     
   2.9000000000000026E-002     0.0000000000000000     
   3.2000000000000028E-002     0.0000000000000000     
   3.5000000000000031E-002     0.0000000000000000     
   3.8000000000000034E-002     0.0000000000000000     
   4.1000000000000036E-002     0.0000000000000000     
   4.4000000000000039E-002     0.0000000000000000     
   4.7000000000000042E-002     0.0000000000000000     
   5.0000000000000044E-002     0.0000000000000000     
   5.3000000000000047E-002     0.0000000000000000     
   5.6000000000000050E-002     0.0000000000000000     
   5.9000000000000052E-002     0.0000000000000000     
   6.2000000000000055E-002     0.0000000000000000     
   6.5000000000000058E-002     0.0000000000000000     
   6.8000000000000060E-002     0.0000000000000000     
   7.1000000000000063E-002     0.0000000000000000     
   7.4000000000000066E-002     0.0000000000000000     
   7.7000000000000068E-002     0.0000000000000000     
   8.0000000000000016E-002     0.0000000000000000     
   8.3000000000000018E-002     0.0000000000000000     
   8.6000000000000021E-002     0.0000000000000000     
   8.9000000000000024E-002     0.0000000000000000     
   9.2000000000000026E-002     0.0000000000000000     
   9.5000000000000029E-002     0.0000000000000000     
   9.8000000000000032E-002     0.0000000000000000     
  0.10100000000000003          0.0000000000000000     
  0.10400000000000004          0.0000000000000000     
  0.10700000000000004          0.0000000000000000     
  0.11000000000000004          0.0000000000000000     
  0.11300000000000004          0.0000000000000000     
  0.11600000000000005          0.0000000000000000     
  0.11900000000000005          0.0000000000000000     
  0.12200000000000005          0.0000000000000000     
  0.12500000000000006          0.0000000000000000     
  0.12800000000000006          0.0000000000000000     
  0.13100000000000006          0.0000000000000000     
  0.13400000000000006          0.0000000000000000     
  0.13700000000000007          0.0000000000000000     
  0.14000000000000007          0.0000000000000000     
  0.14300000000000007          0.0000000000000000     
  0.14600000000000007          0.0000000000000000     
  0.14900000000000008          0.0000000000000000     
  0.15200000000000008          0.0000000000000000     
  0.15500000000000008          0.0000000000000000     
  0.15800000000000008          0.0000000000000000     
  0.16100000000000009          0.0000000000000000     
  0.16400000000000009          0.0000000000000000     
  0.16700000000000009          2.9088961888319144E-042
  0.17000000000000010          2.7951551370789512E-042
  0.17300000000000010         -5.2138188881581344E-042
  0.17600000000000010          4.3529688672862714E-042
  0.17899999999999999          1.0057781601304989E-041
  0.18200000000000000         -2.6101319045552758E-041
  0.18500000000000000         -5.2745764285343266E-041
  0.18800000000000000         -6.3316390049742359E-041
  0.19100000000000000         -4.6906148087442746E-040
  0.19400000000000001         -4.3526191608728764E-040
  0.19700000000000001          6.4964918570731110E-041
  0.20000000000000001          9.7806222113936026E-040
  0.20300000000000001          1.6832870297127165E-039
  0.20600000000000002          1.2986938032955515E-039
  0.20900000000000002         -1.9392278614745999E-039
  0.21200000000000002         -5.7148715021710187E-039
  0.21500000000000002         -7.0206465989481812E-039
  0.21800000000000003         -3.6844846348265221E-039
  0.22100000000000003          9.5769260428927085E-039
  0.22400000000000003          2.7465002765457815E-038
  0.22700000000000004          3.4404209382828504E-038
  0.23000000000000004          2.8855394167337379E-038
  0.23300000000000004         -1.5340290811503765E-038
  0.23600000000000004         -8.9808438251028010E-038
  0.23900000000000005         -1.4834012248848286E-037
  0.24200000000000005         -1.4533807443118101E-037
  0.24500000000000005          6.5291289106870928E-039
  0.24800000000000005          3.0472187620526282E-037
  0.25100000000000006          6.3503532878005110E-037
  0.25400000000000006          7.4816624735997234E-037
  0.25700000000000006          3.4843293061861308E-037
  0.26000000000000006         -7.2629925669715004E-037
  0.26300000000000007         -2.2552388337647225E-036
  0.26600000000000007         -3.4700330076685619E-036
  0.26900000000000007         -3.1555308923043969E-036
  0.27200000000000008         -1.5656090317747707E-037
  0.27500000000000008          5.7437792408204925E-036
  0.27800000000000008          1.2885487179846332E-035
  0.28100000000000008          1.7320698985020080E-035
  0.28400000000000009          1.3614601353551478E-035
  0.28700000000000009         -2.7388002211983268E-036
  0.29000000000000009         -3.1619546826809095E-035
  0.29300000000000009         -6.4681036741024285E-035
  0.29600000000000010         -8.4150930474508345E-035
  0.29900000000000010         -6.6527124875239799E-035
  0.30200000000000010          7.4994249677245420E-036
  0.30499999999999999          1.3829089602240346E-034
  0.30800000000000000          2.9280945217629557E-034
  0.31100000000000000          3.9890893121878393E-034
  0.31400000000000000          3.5762183104724587E-034
  0.31700000000000000          7.8999406188565043E-035
  0.32000000000000001         -4.6196166382336400E-034
  0.32300000000000001         -1.1656541531100464E-033
  0.32600000000000001         -1.7732473343026925E-033
  0.32900000000000001         -1.8914311114531953E-033
  0.33200000000000002         -1.1024523512245468E-033
  0.33500000000000002          8.4072942836607591E-034
  0.33800000000000002          3.7761110217295418E-033
  0.34100000000000003          6.9395590545070294E-033
  0.34400000000000003          8.9374302460963677E-033
  0.34700000000000003          8.0002015892579599E-033
  0.35000000000000003          2.5712974354402219E-033
  0.35300000000000004         -7.8351598908430567E-033
  0.35600000000000004         -2.1733481335028088E-032
  0.35900000000000004         -3.5097723444532274E-032
  0.36200000000000004         -4.1570645567191646E-032
  0.36500000000000005         -3.3813498805122041E-032
  0.36800000000000005         -6.0797599174493909E-033
  0.37100000000000005          4.2372161011614183E-032
  0.37400000000000005          1.0397315478036073E-031
  0.37700000000000006          1.6106129300009515E-031
  0.38000000000000006          1.8719895054845847E-031
  0.38300000000000006          1.5277086564668889E-031
  0.38600000000000007          3.4988068242722776E-032
  0.38900000000000007         -1.6921959556622178E-031
  0.39200000000000007         -4.3085705537017534E-031
  0.39500000000000007         -6.8205835896272720E-031
  0.39800000000000008         -8.2031761751722852E-031
  0.40100000000000008         -7.2795295314070066E-031
  0.40400000000000008         -3.0751940964955354E-031
  0.40700000000000008          4.7148862561620651E-031
  0.41000000000000009          1.5257527201904572E-030
  0.41300000000000009          2.6275761012754160E-030
  0.41600000000000009          3.4096465765226967E-030
  0.41900000000000009          3.4209315771103973E-030
  0.42200000000000010          2.2396251166071702E-030
  0.42500000000000010         -3.6738978077467583E-031
  0.42800000000000010         -4.2698330412466088E-030
  0.43100000000000011         -8.8347993260574634E-030
  0.43400000000000000         -1.2885700594383378E-029
  0.43700000000000000         -1.4819057976800918E-029
  0.44000000000000000         -1.2915143754737716E-029
  0.44300000000000000         -5.8330177515355558E-030
  0.44600000000000001          6.7813023029440868E-030
  0.44900000000000001          2.3712198315749558E-029
  0.45200000000000001          4.1808897252275606E-029
  0.45500000000000002          5.6045599277355398E-029
  0.45800000000000002          6.0178597502779819E-029
  0.46100000000000002          4.8064726147577254E-029
  0.46400000000000002          1.5539697037524184E-029
  0.46700000000000003         -3.7454403037202615E-029
  0.47000000000000003         -1.0500453764137470E-028
  0.47300000000000003         -1.7427240110802920E-028
  0.47600000000000003         -2.2610705600793549E-028
  0.47900000000000004         -2.3770769161985207E-028
  0.48200000000000004         -1.8743804015635243E-028
  0.48500000000000004         -6.1346234611061730E-029
  0.48800000000000004          1.3970450042005836E-028
  0.49100000000000005          3.9398442630356360E-028
  0.49400000000000005          6.5598238466055517E-028
  0.49700000000000005          8.5866138759045169E-028
  0.50000000000000000          9.2230488086356672E-028
  0.50300000000000011          7.7023780523014978E-028
  0.50600000000000001          3.4999552801966915E-028
  0.50900000000000012         -3.4339185180781798E-028
  0.51200000000000001         -1.2471133395470713E-027
  0.51500000000000012         -2.2195349770052673E-027
  0.51800000000000002         -3.0446051559608023E-027
  0.52100000000000013         -3.4563708389313408E-027
  0.52400000000000002         -3.1849820118437873E-027
  0.52700000000000014         -2.0208842068558649E-027
  0.53000000000000003          1.1167695847506690E-028
  0.53300000000000014          3.0859758123768971E-027
  0.53600000000000003          6.5269022532836178E-027
  0.53900000000000015          9.8065666799455181E-027
  0.54200000000000004          1.2096996978374145E-026
  0.54500000000000015          1.2487585454260327E-026
  0.54800000000000004          1.0162848294750482E-026
  0.55100000000000016          4.6210446668227058E-027
  0.55400000000000005         -4.1014760307768983E-027
  0.55700000000000016         -1.5247709040348349E-026
  0.56000000000000005         -2.7253348195244644E-026
  0.56299999999999994         -3.7806277248983755E-026
  0.56600000000000006         -4.4087348472963404E-026
  0.56899999999999995         -4.3199528324853433E-026
  0.57200000000000006         -3.2755523500420456E-026
  0.57499999999999996         -1.1551438365660463E-026
  0.57800000000000007          1.9786326579209918E-026
  0.58099999999999996          5.8322030876758291E-026
  0.58400000000000007          9.8649065518882605E-026
  0.58699999999999997          1.3317639382086814E-025
  0.59000000000000008          1.5294218256978402E-025
  0.59299999999999997          1.4895373372967602E-025
  0.59600000000000009          1.1394881770336395E-025
  0.59899999999999998          4.4362402252428049E-026
  0.60200000000000009         -5.7818566011265284E-026
  0.60500000000000020         -1.8370090311805451E-025
  0.60800000000000010         -3.1702732066397291E-025
  0.61100000000000021         -4.3496597648661319E-025
  0.61400000000000010         -5.1035275719409621E-025
  0.61700000000000021         -5.1539113804257632E-025
  0.62000000000000011         -4.2654585103439714E-025
  0.62300000000000022         -2.3009087403890556E-025
  0.62600000000000011          7.2503961924242609E-026
  0.62900000000000000          4.6033379393927548E-025
  0.63200000000000012          8.9102976857381081E-025
  0.63500000000000001          1.3018841910293982E-024
  0.63800000000000012          1.6148005233147314E-024
  0.64100000000000001          1.7452452983970700E-024
  0.64400000000000013          1.6147812480315940E-024
  0.64700000000000002          1.1660264773025455E-024
  0.65000000000000013          3.7822968761903565E-025
  0.65300000000000002         -7.1891593660034175E-025
  0.65600000000000014         -2.0359355142135236E-024
  0.65900000000000003         -3.4213554085484016E-024
  0.66200000000000014         -4.6688222935681803E-024
  0.66500000000000004         -5.5348220275461270E-024
  0.66800000000000015         -5.7669972766994114E-024
  0.67100000000000004         -5.1413796023734536E-024
  0.67400000000000015         -3.5051497462430063E-024
  0.67700000000000005         -8.1978950294002251E-025
  0.68000000000000016          2.8017059437205533E-024
  0.68300000000000005          7.0706366437839928E-024
  0.68600000000000017          1.1518396635671689E-023
  0.68900000000000006          1.5517756765946417E-023
  0.69200000000000017          1.8333200107020394E-023
  0.69500000000000006          1.9200221883235140E-023
  0.69800000000000018          1.7429666704566320E-023
  0.70100000000000007          1.2528497419898075E-023
  0.70400000000000018          4.3239506930219519E-024
  0.70700000000000007         -6.9251940973305928E-024
  0.71000000000000019         -2.0449339027497035E-023
  0.71300000000000008         -3.4940158677533146E-023
  0.71600000000000019         -4.8589942362938940E-023
  0.71900000000000008         -5.9211147514164800E-023
  0.72200000000000020         -6.4439066536613458E-023
  0.72500000000000009         -6.2012299052403652E-023
  0.72800000000000020         -5.0111985059087880E-023
  0.73100000000000009         -2.7729551693864575E-023
  0.73400000000000021          4.9786187262781243E-024
  0.73700000000000010          4.6400646292922391E-023
  0.74000000000000021          9.3297783332473569E-023
  0.74300000000000010          1.4080431780210309E-022
  0.74600000000000022          1.8264329444233361E-022
  0.74900000000000011          2.1158383116809251E-022
  0.75200000000000022          2.2014414727915205E-022
  0.75500000000000012          2.0150880091825567E-022
  0.75800000000000001          1.5059866517185764E-022
  0.76100000000000012          6.5194749385410420E-023
  0.76400000000000001         -5.3016680328143092E-023
  0.76700000000000013         -1.9762681411387890E-022
  0.77000000000000002         -3.5708026104241867E-022
  0.77300000000000013         -5.1479311522746881E-022
  0.77600000000000002         -6.4994157413750776E-022
  0.77900000000000014         -7.3898253233819568E-022
  0.78200000000000003         -7.5791079051182678E-022
  0.78500000000000014         -6.8514841672470493E-022
  0.78800000000000003         -5.0487925780575138E-022
  0.79100000000000015         -2.1051451911292666E-022
  0.79400000000000004          1.9207968005020349E-022
  0.79700000000000015          6.8206709643021584E-022
  0.80000000000000004          1.2223118137896449E-021
  0.80300000000000016          1.7596797573952375E-021
  0.80600000000000005          2.2273554822274924E-021
  0.80900000000000016          2.5493829293153090E-021
  0.81200000000000006          2.6474485816188186E-021
  0.81500000000000017          2.4496399437791105E-021
  0.81800000000000006          1.9006764067827863E-021
  0.82100000000000017          9.7269868199341217E-022
  0.82400000000000007         -3.2443062516592554E-022
  0.82700000000000018         -1.9346600769094677E-021
  0.83000000000000007         -3.7505358189325940E-021
  0.83300000000000018         -5.6126722667943985E-021
  0.83600000000000008         -7.3150180390514708E-021
  0.83900000000000019         -8.6168145454304350E-021
  0.84200000000000008         -9.2614270470939945E-021
  0.84500000000000020         -9.0016787695727560E-021
  0.84800000000000009         -7.6303545608596497E-021
  0.85100000000000020         -5.0136347599694336E-021
  0.85400000000000009         -1.1246255086100309E-021
  0.85700000000000021          3.9268592796335469E-021
  0.86000000000000010          9.8724068669290893E-021
  0.86300000000000021          1.6275304043625656E-020
  0.86600000000000010          2.2536970572210437E-020
  0.86900000000000022          2.7922656011496700E-020
  0.87200000000000011          3.1608201706148614E-020
  0.87500000000000022          3.2748120845203505E-020
  0.87800000000000011          3.0562109277482669E-020
  0.88100000000000001          2.4435661702031686E-020
  0.88400000000000012          1.4027311967178121E-020
  0.88700000000000001         -6.2761083721884318E-022
  0.89000000000000012         -1.9028513273455082E-020
  0.89300000000000002         -4.0148381391921426E-020
  0.89600000000000013         -6.2414160052979485E-020
  0.89900000000000002         -8.3739366428406259E-020
  0.90200000000000014         -1.0161849119715400E-019
  0.90500000000000003         -1.1328721111562163E-019
  0.90800000000000014         -1.1594747880809384E-019
  0.91100000000000003         -1.0705057653597878E-019
  0.91400000000000015         -8.4620109455802279E-020
  0.91700000000000004         -4.7593599716505270E-020
  0.92000000000000015          3.8464752712079740E-021
  0.92300000000000004          6.7994677171961220E-020
  0.92600000000000016          1.4142756592420642E-019
  0.92900000000000005          2.1894051854170778E-019
  0.93200000000000016          2.9364504570412763E-019
  0.93500000000000005          3.5726009885669863E-019
  0.93800000000000017          4.0060775202705608E-019
  0.94100000000000006          4.1431246152471022E-019
  0.94400000000000017          3.8968713169944107E-019
  0.94700000000000006          3.1975347064416805E-019
  0.95000000000000018          2.0033183960926469E-019
  0.95300000000000007          3.1113065020879989E-020
  0.95600000000000018         -1.8339971064621283E-019
  0.95900000000000007         -4.3319917995967135E-019
  0.96200000000000019         -7.0244681291575568E-019
  0.96500000000000008         -9.6963911515156964E-019
  0.96800000000000019         -1.2083436178936080E-018
  0.97100000000000009         -1.3885783303408426E-018
  0.97400000000000020         -1.4788432321107280E-018
  0.97700000000000009         -1.4487545766093197E-018
  0.98000000000000020         -1.2721757438658705E-018
  0.98300000000000010         -9.3065708905706926E-019
  0.98600000000000021         -4.1695437006119726E-019
  0.98900000000000010          2.6172659745083192E-019
  0.99200000000000021          1.0810562118416172E-018
  0.99500000000000011          1.9979281482517317E-018
  0.99800000000000022          2.9500896075179391E-018
   1.0010000000000001          3.8575213332615096E-018
   1.0040000000000002          4.6256756687829047E-018
   1.0070000000000001          5.1508079611017236E-018
   1.0100000000000000          5.3272793297640279E-018
   1.0130000000000001          5.0567093656706244E-018
   1.0160000000000000          4.2584785408842616E-018
   1.0190000000000001          2.8809705217985534E-018
   1.0220000000000000          9.1272508833487837E-019
   1.0250000000000001         -1.6074593449043800E-018
   1.0280000000000000         -4.5826969552139415E-018
   1.0310000000000001         -7.8535633562867790E-018
   1.0340000000000000         -1.1198062644089148E-017
   1.0370000000000001         -1.4337157835425323E-017
   1.0400000000000000         -1.6946392928575227E-017
   1.0430000000000001         -1.8674023283255016E-017
   1.0460000000000000         -1.9165381546748178E-017
   1.0490000000000002         -1.8092877386008245E-017
   1.0520000000000000         -1.5190175803684655E-017
   1.0550000000000002         -1.0288410486476294E-017
   1.0580000000000001         -3.3520120848255420E-018
   1.0610000000000002          5.4886843687417419E-018
   1.0640000000000001          1.5912373821792860E-017
   1.0670000000000002          2.7392046108377723E-017
   1.0700000000000001          3.9194146837088887E-017
   1.0730000000000002          5.0394993767702672E-017
   1.0760000000000001          5.9916374075251771E-017
   1.0790000000000002          6.6581569013693018E-017
   1.0820000000000001          6.9190913259849823E-017
   1.0850000000000002          6.6615946375849249E-017
   1.0880000000000001          5.7907211674524705E-017
   1.0910000000000002          4.2410062125966633E-017
   1.0940000000000001          1.9881421732166014E-017
   1.0970000000000002         -9.4021344022752851E-018
