 -0.39999999999999997          0.0000000000000000     
 -0.39699999999999996          0.0000000000000000     
 -0.39399999999999996          0.0000000000000000     
 -0.39099999999999996          0.0000000000000000     
 -0.38799999999999996          0.0000000000000000     
 -0.38499999999999995          0.0000000000000000     
 -0.38199999999999995          0.0000000000000000     
 -0.37899999999999995          0.0000000000000000     
 -0.37599999999999995          0.0000000000000000     
 -0.37299999999999994          0.0000000000000000     
 -0.37000000000000000          0.0000000000000000     
 -0.36699999999999999          0.0000000000000000     
 -0.36399999999999999          0.0000000000000000     
 -0.36099999999999999          0.0000000000000000     
 -0.35799999999999998          0.0000000000000000     
 -0.35499999999999998          0.0000000000000000     
 -0.35199999999999998          0.0000000000000000     
 -0.34899999999999998          0.0000000000000000     
 -0.34599999999999997          0.0000000000000000     
 -0.34299999999999997          0.0000000000000000     
 -0.33999999999999997          0.0000000000000000     
 -0.33699999999999997          0.0000000000000000     
 -0.33399999999999996          0.0000000000000000     
 -0.33099999999999996          0.0000000000000000     
 -0.32799999999999996          0.0000000000000000     
 -0.32499999999999996          0.0000000000000000     
 -0.32199999999999995          0.0000000000000000     
 -0.31899999999999995          0.0000000000000000     
 -0.31599999999999995          0.0000000000000000     
 -0.31299999999999994          0.0000000000000000     
 -0.30999999999999994          0.0000000000000000     
 -0.30699999999999994          0.0000000000000000     
 -0.30399999999999994          0.0000000000000000     
 -0.30099999999999993          0.0000000000000000     
 -0.29799999999999993          0.0000000000000000     
 -0.29499999999999998          0.0000000000000000     
 -0.29199999999999998          0.0000000000000000     
 -0.28899999999999998          0.0000000000000000     
 -0.28599999999999998          0.0000000000000000     
 -0.28299999999999997          0.0000000000000000     
 -0.27999999999999997          0.0000000000000000     
 -0.27699999999999997          0.0000000000000000     
 -0.27399999999999997          0.0000000000000000     
 -0.27099999999999996          0.0000000000000000     
 -0.26799999999999996          0.0000000000000000     
 -0.26499999999999996          0.0000000000000000     
 -0.26199999999999996          0.0000000000000000     
 -0.25899999999999995          0.0000000000000000     
 -0.25599999999999995          0.0000000000000000     
 -0.25300000000000000          0.0000000000000000     
 -0.24999999999999997          0.0000000000000000     
 -0.24699999999999997          0.0000000000000000     
 -0.24399999999999997          0.0000000000000000     
 -0.24099999999999996          0.0000000000000000     
 -0.23799999999999996          0.0000000000000000     
 -0.23499999999999996          0.0000000000000000     
 -0.23199999999999996          0.0000000000000000     
 -0.22899999999999995          0.0000000000000000     
 -0.22599999999999995          0.0000000000000000     
 -0.22299999999999998          0.0000000000000000     
 -0.21999999999999997          0.0000000000000000     
 -0.21699999999999997          0.0000000000000000     
 -0.21399999999999997          0.0000000000000000     
 -0.21099999999999997          0.0000000000000000     
 -0.20799999999999996          0.0000000000000000     
 -0.20499999999999996          0.0000000000000000     
 -0.20199999999999996          0.0000000000000000     
 -0.19899999999999995          0.0000000000000000     
 -0.19599999999999995          0.0000000000000000     
 -0.19299999999999995          0.0000000000000000     
 -0.18999999999999997          0.0000000000000000     
 -0.18699999999999997          0.0000000000000000     
 -0.18399999999999997          0.0000000000000000     
 -0.18099999999999997          0.0000000000000000     
 -0.17799999999999996          0.0000000000000000     
 -0.17499999999999996          0.0000000000000000     
 -0.17199999999999996          0.0000000000000000     
 -0.16899999999999996          0.0000000000000000     
 -0.16599999999999995          0.0000000000000000     
 -0.16299999999999995          0.0000000000000000     
 -0.15999999999999998          0.0000000000000000     
 -0.15699999999999997          0.0000000000000000     
 -0.15399999999999997          0.0000000000000000     
 -0.15099999999999997          0.0000000000000000     
 -0.14799999999999996          0.0000000000000000     
 -0.14499999999999996          0.0000000000000000     
 -0.14199999999999996          0.0000000000000000     
 -0.13899999999999996          0.0000000000000000     
 -0.13599999999999995          0.0000000000000000     
 -0.13299999999999995          0.0000000000000000     
 -0.12999999999999995          0.0000000000000000     
 -0.12699999999999995          0.0000000000000000     
 -0.12399999999999994          0.0000000000000000     
 -0.12099999999999994          0.0000000000000000     
 -0.11799999999999994          0.0000000000000000     
 -0.11499999999999994          0.0000000000000000     
 -0.11199999999999993          0.0000000000000000     
 -0.10899999999999999          0.0000000000000000     
 -0.10599999999999998          0.0000000000000000     
 -0.10299999999999998          0.0000000000000000     
  -9.9999999999999978E-002     0.0000000000000000     
  -9.6999999999999975E-002     0.0000000000000000     
  -9.3999999999999972E-002     0.0000000000000000     
  -9.0999999999999970E-002     0.0000000000000000     
  -8.7999999999999967E-002     0.0000000000000000     
  -8.4999999999999964E-002     0.0000000000000000     
  -8.1999999999999962E-002     0.0000000000000000     
  -7.8999999999999959E-002     0.0000000000000000     
  -7.5999999999999956E-002     0.0000000000000000     
  -7.2999999999999954E-002     0.0000000000000000     
  -6.9999999999999951E-002     0.0000000000000000     
  -6.6999999999999948E-002     0.0000000000000000     
  -6.3999999999999946E-002     0.0000000000000000     
  -6.0999999999999943E-002     0.0000000000000000     
  -5.7999999999999940E-002     0.0000000000000000     
  -5.4999999999999938E-002     0.0000000000000000     
  -5.1999999999999935E-002     0.0000000000000000     
  -4.8999999999999932E-002     0.0000000000000000     
  -4.5999999999999985E-002     0.0000000000000000     
  -4.2999999999999983E-002     0.0000000000000000     
  -3.9999999999999980E-002     1.9015251290279387E-041
  -3.6999999999999977E-002    -4.6535229436024762E-041
  -3.3999999999999975E-002    -1.0263092828954956E-040
  -3.0999999999999972E-002     9.7147135088642658E-041
  -2.7999999999999969E-002     1.3554994305690528E-040
  -2.4999999999999967E-002    -6.6205179686792872E-042
  -2.1999999999999964E-002    -2.5549997368189986E-040
  -1.8999999999999961E-002    -4.1985214474634967E-039
  -1.5999999999999959E-002    -5.0760314113794386E-039
  -1.2999999999999956E-002     4.2217671991039575E-039
  -9.9999999999999534E-003     1.7236028334982910E-038
  -6.9999999999999507E-003     1.0179806138344209E-038
  -3.9999999999999480E-003    -3.2124395836695342E-038
  -9.9999999999994538E-004    -8.2945217956386199E-038
   2.0000000000000573E-003    -5.4533114392369330E-038
   5.0000000000000600E-003     1.2582323553986788E-037
   8.0000000000000626E-003     3.5270401355196733E-037
   1.1000000000000065E-002     2.7001246486671285E-037
   1.4000000000000068E-002    -4.4996261428153721E-037
   1.7000000000000015E-002    -1.4571515288374749E-036
   2.0000000000000018E-002    -1.3422458714088309E-036
   2.3000000000000020E-002     1.3951333100774884E-036
   2.6000000000000023E-002     5.7913753474439436E-036
   2.9000000000000026E-002     6.5012261383506442E-036
   3.2000000000000028E-002    -3.2118275702583654E-036
   3.5000000000000031E-002    -2.1777455631324467E-035
   3.8000000000000034E-002    -3.0082344447592595E-035
   4.1000000000000036E-002     9.7931335153627049E-037
   4.4000000000000039E-002     7.5563815156748089E-035
   4.7000000000000042E-002     1.3095952787538927E-034
   5.0000000000000044E-002     4.8150290235938077E-035
   5.3000000000000047E-002    -2.3136084993136405E-034
   5.6000000000000050E-002    -5.2822628619996673E-034
   5.9000000000000052E-002    -3.8972575228456782E-034
   6.2000000000000055E-002     5.6108784880357571E-034
   6.5000000000000058E-002     1.9341275932098570E-033
   6.8000000000000060E-002     2.1634384903329769E-033
   7.1000000000000063E-002    -6.3250383913186964E-034
   7.4000000000000066E-002    -6.2081180738544801E-033
   7.7000000000000068E-002    -9.8233551297060936E-033
   8.0000000000000016E-002    -3.5443782520258121E-033
   8.3000000000000018E-002     1.6155548835137915E-032
   8.6000000000000021E-002     3.7768313160966557E-032
   8.9000000000000024E-002     3.2613803965142384E-032
   9.2000000000000026E-002    -2.5594422087177376E-032
   9.5000000000000029E-002    -1.2100835696940587E-031
   9.8000000000000032E-002    -1.6684633818569110E-031
  0.10100000000000003         -3.9570491221718590E-032
  0.10400000000000004          2.9743056019289526E-031
  0.10700000000000004          6.4329356240422637E-031
  0.11000000000000004          5.5005841871686484E-031
  0.11300000000000004         -3.7614231337848219E-031
  0.11600000000000005         -1.9064641331088366E-030
  0.11900000000000005         -2.7820735607519067E-030
  0.12200000000000005         -1.1522756468167174E-030
  0.12500000000000006          3.7806855074412183E-030
  0.12800000000000006          9.6427104803173080E-030
  0.13100000000000006          1.0350460793016971E-029
  0.13400000000000006         -5.7701407255090404E-031
  0.13700000000000007         -2.2819267780455871E-029
  0.14000000000000007         -4.2576317246955419E-029
  0.14300000000000007         -3.4533173794322678E-029
  0.14600000000000007          2.1274085284347438E-029
  0.14900000000000008          1.1194768836290930E-028
  0.15200000000000008          1.7340789514784253E-028
  0.15500000000000008          1.0957131621612140E-028
  0.15800000000000008         -1.3647795952344138E-028
  0.16100000000000009         -4.8586319674059538E-028
  0.16400000000000009         -6.7785280567120677E-028
  0.16700000000000009         -3.6562176437893798E-028
  0.17000000000000010          6.1711210733831882E-028
  0.17300000000000010          1.9312517710507249E-027
  0.17600000000000010          2.6109198727666285E-027
  0.17899999999999999          1.4291360893658127E-027
  0.18200000000000000         -2.1878803343922411E-027
  0.18500000000000000         -7.0843298490568646E-027
  0.18800000000000000         -9.9653835971894776E-027
  0.19100000000000000         -6.5314200167052095E-027
  0.19400000000000001          5.6326204507253769E-027
  0.19700000000000001          2.3515396997967117E-026
  0.20000000000000001          3.6912696151928406E-026
  0.20300000000000001          3.1147152867532084E-026
  0.20600000000000002         -4.6687725821771973E-027
  0.20900000000000002         -6.6314516567342697E-026
  0.21200000000000002         -1.2652760455647591E-025
  0.21500000000000002         -1.3860514653450556E-025
  0.21800000000000003         -5.6617769848387547E-026
  0.22100000000000003          1.3117412535435302E-025
  0.22400000000000003          3.7029773481932138E-025
  0.22700000000000004          5.3198402609251424E-025
  0.23000000000000004          4.4933909540510643E-025
  0.23300000000000004          1.6188667170045552E-027
  0.23600000000000004         -7.7757879329785313E-025
  0.23900000000000005         -1.6210347382740326E-024
  0.24200000000000005         -2.0428997874987063E-024
  0.24500000000000005         -1.4941964461806861E-024
  0.24800000000000005          3.5082503576129620E-025
  0.25100000000000006          3.2669224483122620E-024
  0.25400000000000006          6.2697067093145327E-024
  0.25700000000000006          7.7086659537095158E-024
  0.26000000000000006          5.7765245395913165E-024
  0.26300000000000007         -6.1017849078811186E-025
  0.26600000000000007         -1.0820538912048812E-023
  0.26900000000000007         -2.1858138865671303E-023
  0.27200000000000008         -2.8552187836083554E-023
  0.27500000000000008         -2.4925748905550701E-023
  0.27800000000000008         -6.6694049925688624E-024
  0.28100000000000008          2.5906691729799831E-023
  0.28400000000000009          6.5580156806455422E-023
  0.28700000000000009          9.7937601762570910E-023
  0.29000000000000009          1.0417282493414069E-022
  0.29300000000000009          6.7154052245375367E-023
  0.29600000000000010         -2.0354748346619141E-023
  0.29900000000000010         -1.4779855737983084E-022
  0.30200000000000010         -2.8263889022716942E-022
  0.30499999999999999         -3.7314248527244496E-022
  0.30800000000000000         -3.6002142322689253E-022
  0.31100000000000000         -1.9613849561146189E-022
  0.31400000000000000          1.2985542724100910E-022
  0.31700000000000000          5.7314910230219425E-022
  0.32000000000000001          1.0244375757819583E-021
  0.32300000000000001          1.3214187199333332E-021
  0.32600000000000001          1.2838606653281734E-021
  0.32900000000000001          7.6919531516918013E-022
  0.33200000000000002         -2.6249214522051379E-022
  0.33500000000000002         -1.6923659414858894E-021
  0.33800000000000002         -3.2174682867125012E-021
  0.34100000000000003         -4.3755733263273808E-021
  0.34400000000000003         -4.6304856202669259E-021
  0.34700000000000003         -3.5125135909958512E-021
  0.35000000000000003         -7.9012203349952667E-022
  0.35300000000000004          3.3685561236296944E-021
  0.35600000000000004          8.2959578221678253E-021
  0.35900000000000004          1.2837035912828635E-020
  0.36200000000000004          1.5506307737578778E-020
  0.36500000000000005          1.4792548800337984E-020
  0.36800000000000005          9.5734580132044381E-021
  0.37100000000000005         -4.3882726664883665E-022
  0.37400000000000005         -1.4331765945088204E-020
  0.37700000000000006         -2.9827215626925090E-020
  0.38000000000000006         -4.3420211057239073E-020
  0.38300000000000006         -5.0875880421383110E-020
  0.38600000000000007         -4.8063690340158734E-020
  0.38900000000000007         -3.2019174689050934E-020
  0.39200000000000007         -2.0392716235283619E-021
  0.39500000000000007          3.9440817623938933E-020
  0.39800000000000008          8.6454700369055370E-020
  0.40100000000000008          1.2981618857451680E-019
  0.40400000000000008          1.5825087068027189E-019
  0.40700000000000008          1.6030942196265237E-019
  0.41000000000000009          1.2684499937498952E-019
  0.41300000000000009          5.3665838557616385E-020
  0.41600000000000009         -5.6152516682835834E-020
  0.41900000000000009         -1.9085692387641508E-019
  0.42200000000000010         -3.3001229508846806E-019
  0.42500000000000010         -4.4624028812403764E-019
  0.42800000000000010         -5.0877143341909901E-019
  0.43100000000000011         -4.8855164653370934E-019
  0.43400000000000000         -3.6430143484444058E-019
  0.43700000000000000         -1.2862443689517017E-019
  0.44000000000000000          2.0692907110952739E-019
  0.44300000000000000          6.0898153528086478E-019
  0.44600000000000001          1.0226215160322418E-018
  0.44900000000000001          1.3755304645202428E-018
  0.45200000000000001          1.5861008997526966E-018
  0.45500000000000002          1.5750920440645609E-018
  0.45800000000000002          1.2797086427493180E-018
  0.46100000000000002          6.6838606133436519E-019
  0.46400000000000002         -2.4589812583884825E-019
  0.46700000000000003         -1.3962003199255722E-018
  0.47000000000000003         -2.6584081457071132E-018
  0.47300000000000003         -3.8561817852992725E-018
  0.47600000000000003         -4.7751702873203539E-018
  0.47900000000000004         -5.1865581525150150E-018
  0.48200000000000004         -4.8786543263955500E-018
  0.48500000000000004         -3.6938011869987825E-018
  0.48800000000000004         -1.5664994598220327E-018
  0.49100000000000005          1.4424799045120625E-018
  0.49400000000000005          5.1218768054999807E-018
  0.49700000000000005          9.1015395583329256E-018
  0.50000000000000000          1.2864897625261298E-017
  0.50300000000000011          1.5785715038466098E-017
  0.50600000000000001          1.7189942719563344E-017
  0.50900000000000012          1.6440148213317086E-017
  0.51200000000000001          1.3036356430712749E-017
  0.51500000000000012          6.7232590038054368E-018
  0.51800000000000002         -2.4094658905640535E-018
  0.52100000000000013         -1.3849216153722209E-017
  0.52400000000000002         -2.6621130491924307E-017
  0.52700000000000014         -3.9302080094664332E-017
  0.53000000000000003         -5.0099129311373061E-017
  0.53300000000000014         -5.6997453493698159E-017
  0.53600000000000003         -5.7974820452309982E-017
  0.53900000000000015         -5.1270158160775213E-017
  0.54200000000000004         -3.5683845887811389E-017
  0.54500000000000015         -1.0878376366838969E-017
  0.54800000000000004          2.2359552130513941E-017
  0.55100000000000016          6.1937627593016916E-017
  0.55400000000000005          1.0439913658711088E-016
  0.55700000000000016          1.4502217970060349E-016
  0.56000000000000005          1.7810098361599321E-016
  0.56299999999999994          1.9741612364346423E-016
  0.56600000000000006          1.9687919389980139E-016
  0.56899999999999995          1.7131378006770184E-016
  0.57200000000000006          1.1730909251213627E-016
  0.57499999999999996          3.4062623507321501E-017
  0.57800000000000007         -7.5891195617389088E-017
  0.58099999999999996         -2.0617563153776229E-016
  0.58400000000000007         -3.4639834368125321E-016
  0.58699999999999997         -4.8240279848619919E-016
  0.59000000000000008         -5.9701069765609751E-016
  0.59299999999999997         -6.7127941840768233E-016
  0.59600000000000009         -6.8624690961295696E-016
  0.59899999999999998         -6.2507753688292425E-016
  0.60200000000000009         -4.7545958807413140E-016
  0.60500000000000020         -2.3204747126082125E-016
  0.60800000000000010          1.0130787414877585E-016
  0.61100000000000021          5.0982766913361366E-016
  0.61400000000000010          9.6686658889549050E-016
  0.61700000000000021          1.4340395655635301E-015
  0.62000000000000011          1.8626306470943046E-015
  0.62300000000000022          2.1964130397812962E-015
  0.62600000000000011          2.3758871052758723E-015
  0.62900000000000000          2.3438020824506977E-015
  0.63200000000000012          2.0516685242935154E-015
  0.63500000000000001          1.4667991953064082E-015
  0.63800000000000012          5.7928470791659997E-016
  0.64100000000000001         -5.9182879619325015E-016
  0.64400000000000013         -1.9939368705788669E-015
  0.64700000000000002         -3.5386338876878950E-015
  0.65000000000000013         -5.1025645173971998E-015
  0.65300000000000002         -6.5319043847461567E-015
  0.65600000000000014         -7.6508055546741754E-015
  0.65900000000000003         -8.2737857719892807E-015
  0.66200000000000014         -8.2217020934493715E-015
  0.66500000000000004         -7.3404962745850922E-015
  0.66800000000000015         -5.5215106963422310E-015
  0.67100000000000004         -2.7217762946883030E-015
  0.67400000000000015          1.0176275745545677E-015
  0.67700000000000005          5.5572294196804820E-015
  0.68000000000000016          1.0650976957431369E-014
  0.68300000000000005          1.5946164398295707E-014
  0.68600000000000017          2.0993094934692849E-014
  0.68900000000000006          2.5265551350629353E-014
  0.69200000000000017          2.8192344268394646E-014
  0.69500000000000006          2.9199338383332931E-014
  0.69800000000000018          2.7760245870141514E-014
  0.70100000000000007          2.3453529789285173E-014
  0.70400000000000018          1.6021504625175838E-014
  0.70700000000000007          5.4271082044788764E-015
  0.71000000000000019         -8.0971120864089923E-015
  0.71300000000000008         -2.4013406997764866E-014
  0.71600000000000019         -4.1462195138452343E-014
  0.71900000000000008         -5.9269424682504304E-014
  0.72200000000000020         -7.5981827648095354E-014
  0.72500000000000009         -8.9932433302845556E-014
  0.72800000000000020         -9.9336600190301854E-014
  0.73100000000000009         -1.0241633135605702E-013
  0.73400000000000021         -9.7548101699872857E-014
  0.73700000000000010         -8.3426658172187383E-014
  0.74000000000000021         -5.9234461538566840E-014
  0.74300000000000010         -2.4804346661080912E-014
  0.74600000000000022          1.9238528854232384E-014
  0.74900000000000011          7.1370579627328653E-014
  0.75200000000000022          1.2911418614511081E-013
  0.75500000000000012          1.8904583443598221E-013
  0.75800000000000001          2.4687882740267648E-013
  0.76100000000000012          2.9762778022317265E-013
  0.76400000000000001          3.3585646536874160E-013
  0.76700000000000013          3.5600506746489661E-013
  0.77000000000000002          3.5278680723755594E-013
  0.77300000000000013          3.2163592216644429E-013
  0.77600000000000002          2.5918346051760152E-013
  0.77900000000000014          1.6373092522189703E-013
  0.78200000000000003          3.5686623930074637E-014
  0.78500000000000014         -1.2207244878412157E-013
  0.78800000000000003         -3.0395132912832913E-013
  0.79100000000000015         -5.0153798684064915E-013
  0.79400000000000004         -7.0368485555179965E-013
  0.79700000000000015         -8.9679602115115759E-013
  0.80000000000000004         -1.0653335691336126E-012
  0.80300000000000016         -1.1925454056929566E-012
  0.80600000000000005         -1.2613966796854852E-012
  0.80900000000000016         -1.2556787604304368E-012
  0.81200000000000006         -1.1612481313098139E-012
  0.81500000000000017         -9.6733017418172509E-013
  0.81800000000000006         -6.6781390380146460E-013
  0.82100000000000017         -2.6245147428994481E-013
  0.82400000000000007          2.4213603744334656E-013
  0.82700000000000018          8.3173773313001003E-013
  0.83000000000000007          1.4842123044388730E-012
  0.83300000000000018          2.1696035402665823E-012
  0.83600000000000008          2.8507847810544799E-012
  0.83900000000000019          3.4846641573881868E-012
  0.84200000000000008          4.0239682464149112E-012
  0.84500000000000020          4.4195812470677125E-012
  0.84800000000000009          4.6233844818713051E-012
  0.85100000000000020          4.5914969545419084E-012
  0.85400000000000009          4.2877904727058838E-012
  0.85700000000000021          3.6875088535574967E-012
  0.86000000000000010          2.7808068911147009E-012
  0.86300000000000021          1.5759869290963711E-012
  0.86600000000000010          1.0222074169835516E-013
  0.86900000000000022         -1.5884764553379707E-012
  0.87200000000000011         -3.4202134740912088E-012
  0.87500000000000022         -5.2933331529448690E-012
  0.87800000000000011         -7.0857869604583847E-012
  0.88100000000000001         -8.6558876491374219E-012
  0.88400000000000012         -9.8464582757723317E-012
  0.88700000000000001         -1.0490346027760576E-011
  0.89000000000000012         -1.0417203778662426E-011
  0.89300000000000002         -9.4613379234866389E-012
  0.89600000000000013         -7.4704275323716413E-012
  0.89900000000000002         -4.3147568630805999E-012
  0.90200000000000014          1.0334147976277499E-013
  0.90500000000000003          5.8402226993442036E-012
  0.90800000000000014          1.2902251089035168E-011
  0.91100000000000003          2.1238049526575420E-011
  0.91400000000000015          3.0731983265627018E-011
  0.91700000000000004          4.1199204159497460E-011
  0.92000000000000015          5.2382405624273334E-011
  0.92300000000000004          6.3950282739906147E-011
  0.92600000000000016          7.5497830806111675E-011
  0.92900000000000005          8.6547968655003605E-011
  0.93200000000000016          9.6554441747323139E-011
  0.93500000000000005          1.0490522937610672E-010
  0.93800000000000017          1.1092581265956855E-010
  0.94100000000000006          1.1388162229468915E-010
  0.94400000000000017          1.1297848794077574E-010
  0.94700000000000006          1.0736011831741785E-010
  0.95000000000000018          9.6101263576811674E-011
  0.95300000000000007          7.8195535280702073E-011
  0.95600000000000018          5.2536438278502141E-011
  0.95900000000000007          1.7890431850777050E-011
  0.96200000000000019         -2.7139567648055489E-011
  0.96500000000000008         -8.4160560476930663E-011
  0.96800000000000019         -1.5504871327494354E-010
  0.97100000000000009         -2.4202034372855293E-010
  0.97400000000000020         -3.4771772010131033E-010
  0.97700000000000009         -4.7530880947232283E-010
  0.98000000000000020         -6.2860373984282234E-010
  0.98300000000000010         -8.1218759039929619E-010
  0.98600000000000021         -1.0315716387181803E-009
  0.98900000000000010         -1.2933615723409939E-009
  0.99200000000000021         -1.6054453576358821E-009
  0.99500000000000011         -1.9772084747838006E-009
  0.99800000000000022         -2.4197588994520193E-009
   1.0010000000000001         -2.9461890889180970E-009
   1.0040000000000002         -3.5718524953792605E-009
   1.0070000000000001         -4.3146794244937771E-009
   1.0100000000000000         -5.1955109470154301E-009
   1.0130000000000001         -6.2384790853379952E-009
   1.0160000000000000         -7.4713964136742668E-009
   1.0190000000000001         -8.9262158287687686E-009
   1.0220000000000000         -1.0639524764724900E-008
   1.0250000000000001         -1.2653046634531709E-008
   1.0280000000000000         -1.5014242591992203E-008
   1.0310000000000001         -1.7776923728628785E-008
   1.0340000000000000         -2.1001942367270786E-008
   1.0370000000000001         -2.4757886099667084E-008
   1.0400000000000000         -2.9121899444390031E-008
   1.0430000000000001         -3.4180436821846594E-008
   1.0460000000000000         -4.0030241229082379E-008
   1.0490000000000002         -4.6779208661437730E-008
   1.0520000000000000         -5.4547316048209648E-008
   1.0550000000000002         -6.3467683328427640E-008
   1.0580000000000001         -7.3687475489596630E-008
   1.0610000000000002         -8.5369071635347073E-008
   1.0640000000000001         -9.8691011343432559E-008
   1.0670000000000002         -1.1384881593343577E-007
   1.0700000000000001         -1.3105622529151383E-007
   1.0730000000000002         -1.5054589853152271E-007
   1.0760000000000001         -1.7257011916925264E-007
   1.0790000000000002         -1.9740166168119570E-007
   1.0820000000000001         -2.2533407075130000E-007
   1.0850000000000002         -2.5668199832734561E-007
   1.0880000000000001         -2.9178145732693622E-007
   1.0910000000000002         -3.3098918485429750E-007
   1.0940000000000001         -3.7468285979971627E-007
   1.0970000000000002         -4.2325922207624004E-007
