 -0.39999999999999997          0.0000000000000000     
 -0.39699999999999996          0.0000000000000000     
 -0.39399999999999996          0.0000000000000000     
 -0.39099999999999996          0.0000000000000000     
 -0.38799999999999996          0.0000000000000000     
 -0.38499999999999995          0.0000000000000000     
 -0.38199999999999995          0.0000000000000000     
 -0.37899999999999995          0.0000000000000000     
 -0.37599999999999995          0.0000000000000000     
 -0.37299999999999994          0.0000000000000000     
 -0.37000000000000000          0.0000000000000000     
 -0.36699999999999999          0.0000000000000000     
 -0.36399999999999999          0.0000000000000000     
 -0.36099999999999999          0.0000000000000000     
 -0.35799999999999998          0.0000000000000000     
 -0.35499999999999998          0.0000000000000000     
 -0.35199999999999998          0.0000000000000000     
 -0.34899999999999998          0.0000000000000000     
 -0.34599999999999997          0.0000000000000000     
 -0.34299999999999997          0.0000000000000000     
 -0.33999999999999997          0.0000000000000000     
 -0.33699999999999997          0.0000000000000000     
 -0.33399999999999996          0.0000000000000000     
 -0.33099999999999996          0.0000000000000000     
 -0.32799999999999996          0.0000000000000000     
 -0.32499999999999996          0.0000000000000000     
 -0.32199999999999995          0.0000000000000000     
 -0.31899999999999995          0.0000000000000000     
 -0.31599999999999995          0.0000000000000000     
 -0.31299999999999994          0.0000000000000000     
 -0.30999999999999994          0.0000000000000000     
 -0.30699999999999994          0.0000000000000000     
 -0.30399999999999994          0.0000000000000000     
 -0.30099999999999993          0.0000000000000000     
 -0.29799999999999993          0.0000000000000000     
 -0.29499999999999998          0.0000000000000000     
 -0.29199999999999998          0.0000000000000000     
 -0.28899999999999998          0.0000000000000000     
 -0.28599999999999998          0.0000000000000000     
 -0.28299999999999997          0.0000000000000000     
 -0.27999999999999997          0.0000000000000000     
 -0.27699999999999997          0.0000000000000000     
 -0.27399999999999997          0.0000000000000000     
 -0.27099999999999996          0.0000000000000000     
 -0.26799999999999996          0.0000000000000000     
 -0.26499999999999996          0.0000000000000000     
 -0.26199999999999996          0.0000000000000000     
 -0.25899999999999995          0.0000000000000000     
 -0.25599999999999995          0.0000000000000000     
 -0.25300000000000000          0.0000000000000000     
 -0.24999999999999997          0.0000000000000000     
 -0.24699999999999997          0.0000000000000000     
 -0.24399999999999997          0.0000000000000000     
 -0.24099999999999996          0.0000000000000000     
 -0.23799999999999996          0.0000000000000000     
 -0.23499999999999996          0.0000000000000000     
 -0.23199999999999996          0.0000000000000000     
 -0.22899999999999995          0.0000000000000000     
 -0.22599999999999995          0.0000000000000000     
 -0.22299999999999998          0.0000000000000000     
 -0.21999999999999997          0.0000000000000000     
 -0.21699999999999997          0.0000000000000000     
 -0.21399999999999997          0.0000000000000000     
 -0.21099999999999997          0.0000000000000000     
 -0.20799999999999996          0.0000000000000000     
 -0.20499999999999996          0.0000000000000000     
 -0.20199999999999996          0.0000000000000000     
 -0.19899999999999995          0.0000000000000000     
 -0.19599999999999995          0.0000000000000000     
 -0.19299999999999995          0.0000000000000000     
 -0.18999999999999997          0.0000000000000000     
 -0.18699999999999997          0.0000000000000000     
 -0.18399999999999997          0.0000000000000000     
 -0.18099999999999997          0.0000000000000000     
 -0.17799999999999996          0.0000000000000000     
 -0.17499999999999996          0.0000000000000000     
 -0.17199999999999996          0.0000000000000000     
 -0.16899999999999996          0.0000000000000000     
 -0.16599999999999995          0.0000000000000000     
 -0.16299999999999995          0.0000000000000000     
 -0.15999999999999998          0.0000000000000000     
 -0.15699999999999997          0.0000000000000000     
 -0.15399999999999997          0.0000000000000000     
 -0.15099999999999997          0.0000000000000000     
 -0.14799999999999996          0.0000000000000000     
 -0.14499999999999996          0.0000000000000000     
 -0.14199999999999996          0.0000000000000000     
 -0.13899999999999996          0.0000000000000000     
 -0.13599999999999995          0.0000000000000000     
 -0.13299999999999995          0.0000000000000000     
 -0.12999999999999995          0.0000000000000000     
 -0.12699999999999995          0.0000000000000000     
 -0.12399999999999994          0.0000000000000000     
 -0.12099999999999994          0.0000000000000000     
 -0.11799999999999994          0.0000000000000000     
 -0.11499999999999994          0.0000000000000000     
 -0.11199999999999993          0.0000000000000000     
 -0.10899999999999999          0.0000000000000000     
 -0.10599999999999998          0.0000000000000000     
 -0.10299999999999998          0.0000000000000000     
  -9.9999999999999978E-002     0.0000000000000000     
  -9.6999999999999975E-002     0.0000000000000000     
  -9.3999999999999972E-002     0.0000000000000000     
  -9.0999999999999970E-002     0.0000000000000000     
  -8.7999999999999967E-002     0.0000000000000000     
  -8.4999999999999964E-002     0.0000000000000000     
  -8.1999999999999962E-002     0.0000000000000000     
  -7.8999999999999959E-002     0.0000000000000000     
  -7.5999999999999956E-002     0.0000000000000000     
  -7.2999999999999954E-002     0.0000000000000000     
  -6.9999999999999951E-002     0.0000000000000000     
  -6.6999999999999948E-002     0.0000000000000000     
  -6.3999999999999946E-002     0.0000000000000000     
  -6.0999999999999943E-002     0.0000000000000000     
  -5.7999999999999940E-002     0.0000000000000000     
  -5.4999999999999938E-002     0.0000000000000000     
  -5.1999999999999935E-002     0.0000000000000000     
  -4.8999999999999932E-002     0.0000000000000000     
  -4.5999999999999985E-002     0.0000000000000000     
  -4.2999999999999983E-002     0.0000000000000000     
  -3.9999999999999980E-002     0.0000000000000000     
  -3.6999999999999977E-002     0.0000000000000000     
  -3.3999999999999975E-002     0.0000000000000000     
  -3.0999999999999972E-002     0.0000000000000000     
  -2.7999999999999969E-002     0.0000000000000000     
  -2.4999999999999967E-002     0.0000000000000000     
  -2.1999999999999964E-002     0.0000000000000000     
  -1.8999999999999961E-002     0.0000000000000000     
  -1.5999999999999959E-002     0.0000000000000000     
  -1.2999999999999956E-002     0.0000000000000000     
  -9.9999999999999534E-003     0.0000000000000000     
  -6.9999999999999507E-003     0.0000000000000000     
  -3.9999999999999480E-003     0.0000000000000000     
  -9.9999999999994538E-004     0.0000000000000000     
   2.0000000000000573E-003     0.0000000000000000     
   5.0000000000000600E-003     0.0000000000000000     
   8.0000000000000626E-003     0.0000000000000000     
   1.1000000000000065E-002     0.0000000000000000     
   1.4000000000000068E-002     0.0000000000000000     
   1.7000000000000015E-002     0.0000000000000000     
   2.0000000000000018E-002     0.0000000000000000     
   2.3000000000000020E-002     0.0000000000000000     
   2.6000000000000023E-002     0.0000000000000000     
   2.9000000000000026E-002     0.0000000000000000     
   3.2000000000000028E-002     0.0000000000000000     
   3.5000000000000031E-002     0.0000000000000000     
   3.8000000000000034E-002     0.0000000000000000     
   4.1000000000000036E-002     0.0000000000000000     
   4.4000000000000039E-002     0.0000000000000000     
   4.7000000000000042E-002     0.0000000000000000     
   5.0000000000000044E-002     0.0000000000000000     
   5.3000000000000047E-002     0.0000000000000000     
   5.6000000000000050E-002     0.0000000000000000     
   5.9000000000000052E-002     0.0000000000000000     
   6.2000000000000055E-002     0.0000000000000000     
   6.5000000000000058E-002     0.0000000000000000     
   6.8000000000000060E-002     0.0000000000000000     
   7.1000000000000063E-002     0.0000000000000000     
   7.4000000000000066E-002     0.0000000000000000     
   7.7000000000000068E-002     0.0000000000000000     
   8.0000000000000016E-002     0.0000000000000000     
   8.3000000000000018E-002     0.0000000000000000     
   8.6000000000000021E-002     0.0000000000000000     
   8.9000000000000024E-002     0.0000000000000000     
   9.2000000000000026E-002     0.0000000000000000     
   9.5000000000000029E-002     0.0000000000000000     
   9.8000000000000032E-002     0.0000000000000000     
  0.10100000000000003          0.0000000000000000     
  0.10400000000000004          0.0000000000000000     
  0.10700000000000004          0.0000000000000000     
  0.11000000000000004          0.0000000000000000     
  0.11300000000000004          0.0000000000000000     
  0.11600000000000005          0.0000000000000000     
  0.11900000000000005          0.0000000000000000     
  0.12200000000000005          0.0000000000000000     
  0.12500000000000006          0.0000000000000000     
  0.12800000000000006          0.0000000000000000     
  0.13100000000000006          0.0000000000000000     
  0.13400000000000006          0.0000000000000000     
  0.13700000000000007          0.0000000000000000     
  0.14000000000000007          0.0000000000000000     
  0.14300000000000007          0.0000000000000000     
  0.14600000000000007          0.0000000000000000     
  0.14900000000000008          0.0000000000000000     
  0.15200000000000008          0.0000000000000000     
  0.15500000000000008          0.0000000000000000     
  0.15800000000000008          0.0000000000000000     
  0.16100000000000009          0.0000000000000000     
  0.16400000000000009          0.0000000000000000     
  0.16700000000000009          0.0000000000000000     
  0.17000000000000010          0.0000000000000000     
  0.17300000000000010          0.0000000000000000     
  0.17600000000000010          0.0000000000000000     
  0.17899999999999999          0.0000000000000000     
  0.18200000000000000          0.0000000000000000     
  0.18500000000000000          0.0000000000000000     
  0.18800000000000000          0.0000000000000000     
  0.19100000000000000          0.0000000000000000     
  0.19400000000000001          0.0000000000000000     
  0.19700000000000001          0.0000000000000000     
  0.20000000000000001          0.0000000000000000     
  0.20300000000000001          0.0000000000000000     
  0.20600000000000002          0.0000000000000000     
  0.20900000000000002          0.0000000000000000     
  0.21200000000000002          0.0000000000000000     
  0.21500000000000002          0.0000000000000000     
  0.21800000000000003          0.0000000000000000     
  0.22100000000000003          0.0000000000000000     
  0.22400000000000003          0.0000000000000000     
  0.22700000000000004          0.0000000000000000     
  0.23000000000000004          0.0000000000000000     
  0.23300000000000004          0.0000000000000000     
  0.23600000000000004          0.0000000000000000     
  0.23900000000000005          0.0000000000000000     
  0.24200000000000005          0.0000000000000000     
  0.24500000000000005          0.0000000000000000     
  0.24800000000000005          0.0000000000000000     
  0.25100000000000006          0.0000000000000000     
  0.25400000000000006          0.0000000000000000     
  0.25700000000000006          0.0000000000000000     
  0.26000000000000006          0.0000000000000000     
  0.26300000000000007          0.0000000000000000     
  0.26600000000000007          0.0000000000000000     
  0.26900000000000007          0.0000000000000000     
  0.27200000000000008          0.0000000000000000     
  0.27500000000000008          0.0000000000000000     
  0.27800000000000008          0.0000000000000000     
  0.28100000000000008          0.0000000000000000     
  0.28400000000000009          0.0000000000000000     
  0.28700000000000009          0.0000000000000000     
  0.29000000000000009          0.0000000000000000     
  0.29300000000000009          0.0000000000000000     
  0.29600000000000010          0.0000000000000000     
  0.29900000000000010          0.0000000000000000     
  0.30200000000000010          0.0000000000000000     
  0.30499999999999999          0.0000000000000000     
  0.30800000000000000          0.0000000000000000     
  0.31100000000000000          0.0000000000000000     
  0.31400000000000000          0.0000000000000000     
  0.31700000000000000          0.0000000000000000     
  0.32000000000000001          0.0000000000000000     
  0.32300000000000001          0.0000000000000000     
  0.32600000000000001          0.0000000000000000     
  0.32900000000000001          0.0000000000000000     
  0.33200000000000002          0.0000000000000000     
  0.33500000000000002          0.0000000000000000     
  0.33800000000000002          0.0000000000000000     
  0.34100000000000003          0.0000000000000000     
  0.34400000000000003          0.0000000000000000     
  0.34700000000000003          0.0000000000000000     
  0.35000000000000003          0.0000000000000000     
  0.35300000000000004         -6.6784813485141260E-043
  0.35600000000000004         -1.0986234620011032E-042
  0.35900000000000004          1.9153074355105324E-042
  0.36200000000000004         -1.1373370948853506E-042
  0.36500000000000005         -3.7913229240676604E-042
  0.36800000000000005          5.4001984851404813E-042
  0.37100000000000005          7.3505141168853947E-041
  0.37400000000000005          1.2919355561831377E-040
  0.37700000000000006          1.5313360295531448E-040
  0.38000000000000006          1.0325305931419318E-040
  0.38300000000000006         -3.0694629828824057E-041
  0.38600000000000007         -4.2336747629727527E-040
  0.38900000000000007          8.1672711012504568E-041
  0.39200000000000007          4.8001162430422304E-040
  0.39500000000000007         -4.4790155616159087E-040
  0.39800000000000008          6.0369783343921381E-040
  0.40100000000000008          2.4571556231526790E-039
  0.40400000000000008          2.7435074629495534E-038
  0.40700000000000008          4.4316688333979596E-038
  0.41000000000000009          5.3262503354571297E-038
  0.41300000000000009          4.4070684000759455E-038
  0.41600000000000009          1.0235313655581870E-038
  0.41900000000000009         -5.2678565010117671E-038
  0.42200000000000010         -1.3658087750952411E-037
  0.42500000000000010         -2.1980673176685415E-037
  0.42800000000000010         -2.6670776748813424E-037
  0.43100000000000011         -2.3352487820428662E-037
  0.43400000000000000         -8.1020528999871910E-038
  0.43700000000000000          2.0677566344352721E-037
  0.44000000000000000          6.0156610591874470E-037
  0.44300000000000000          1.0144902042027662E-036
  0.44600000000000001          1.2936351707669464E-036
  0.44900000000000001          1.2444280350762288E-036
  0.45200000000000001          6.7865553761438254E-037
  0.45500000000000002         -5.1001975137306079E-037
  0.45800000000000002         -2.2567964996377631E-036
  0.46100000000000002         -4.2480694435595915E-036
  0.46400000000000002         -5.8906456648694435E-036
  0.46700000000000003         -6.3654865317696742E-036
  0.47000000000000003         -4.7938778571030653E-036
  0.47300000000000003         -5.1933557043473494E-037
  0.47600000000000003          6.5305856450585955E-036
  0.47900000000000004          1.5485945775430526E-035
  0.48200000000000004          2.4306188468574829E-035
  0.48500000000000004          2.9831097635938246E-035
  0.48800000000000004          2.8243737966073158E-035
  0.49100000000000005          1.6008561425210191E-035
  0.49400000000000005         -8.7787379354315557E-036
  0.49700000000000005         -4.4862518784916279E-035
  0.50000000000000000         -8.6531188250879771E-035
  0.50300000000000011         -1.2309918076133106E-034
  0.50600000000000001         -1.3973656196811801E-034
  0.50900000000000012         -1.2006999908706788E-034
  0.51200000000000001         -5.0624861338065235E-035
  0.51500000000000012          7.3367450212615773E-035
  0.51800000000000002          2.4193628831231999E-034
  0.52100000000000013          4.2588057656253621E-034
  0.52400000000000002          5.7597034812204592E-034
  0.52700000000000014          6.2790438057171612E-034
  0.53000000000000003          5.1432533818465285E-034
  0.53300000000000014          1.8369524036862817E-034
  0.53600000000000003         -3.7631399101881709E-034
  0.53900000000000015         -1.1157004618454047E-033
  0.54200000000000004         -1.9062207169264484E-033
  0.54500000000000015         -2.5407504136912806E-033
  0.54800000000000004         -2.7552647731307679E-033
  0.55100000000000016         -2.2776628192492608E-033
  0.55400000000000005         -9.0191519148996658E-034
  0.55700000000000016          1.4218391779672090E-033
  0.56000000000000005          4.4992999072438121E-033
  0.56299999999999994          7.8316561595513917E-033
  0.56600000000000006          1.0612058861286779E-032
  0.56899999999999995          1.1805370339079748E-032
  0.57200000000000006          1.0326466609848165E-032
  0.57499999999999996          5.3123714832813039E-033
  0.57800000000000007         -3.5438216555639363E-033
  0.58099999999999996         -1.5659376631496225E-032
  0.58400000000000007         -2.9317361862551410E-032
  0.58699999999999997         -4.1613762155823614E-032
  0.59000000000000008         -4.8692178888363467E-032
  0.59299999999999997         -4.6327420330164024E-032
  0.59600000000000009         -3.0855174910109348E-032
  0.59899999999999998         -3.5516040652947649E-034
  0.60200000000000009          4.4106885832483281E-032
  0.60500000000000020          9.7467101804282826E-032
  0.60800000000000010          1.5022911921585756E-031
  0.61100000000000021          1.8895185342837894E-031
  0.61400000000000010          1.9791329844671762E-031
  0.61700000000000021          1.6201762602729836E-031
  0.62000000000000011          7.0736298127483904E-032
  0.62300000000000022         -7.7456637664029797E-032
  0.62600000000000011         -2.7102438469325611E-031
  0.62900000000000000         -4.8279685007644939E-031
  0.63200000000000012         -6.7008020240111379E-031
  0.63500000000000001         -7.7846090287528660E-031
  0.63800000000000012         -7.4984055596393077E-031
  0.64100000000000001         -5.3446188574478229E-031
  0.64400000000000013         -1.0567414787094807E-031
  0.64700000000000002          5.2489730877805104E-031
  0.65000000000000013          1.2950738167719362E-030
  0.65300000000000002          2.0865817567367014E-030
  0.65600000000000014          2.7299886425709431E-030
  0.65900000000000003          3.0228785642352666E-030
  0.66200000000000014          2.7620964682810758E-030
  0.66500000000000004          1.7881072892180666E-030
  0.66800000000000015          3.6181687285014974E-032
  0.67100000000000004         -2.4142160172861515E-030
  0.67400000000000015         -5.3030963542680829E-030
  0.67700000000000005         -8.1790418295132816E-030
  0.68000000000000016         -1.0425003381012208E-029
  0.68300000000000005         -1.1328200062071384E-029
  0.68600000000000017         -1.0194819314645957E-029
  0.68900000000000006         -6.5011664890880926E-030
  0.69200000000000017         -6.2590907352833597E-032
  0.69500000000000006          8.8083588420364726E-030
  0.69800000000000018          1.9190386086254361E-029
  0.70100000000000007          2.9526701819659331E-029
  0.70400000000000018          3.7716823354058297E-029
  0.70700000000000007          4.1347893535435691E-029
  0.71000000000000019          3.8065892565655839E-029
  0.71300000000000008          2.6059443243434389E-029
  0.71600000000000019          4.5985406121577030E-030
  0.71900000000000008         -2.5458460526628431E-029
  0.72200000000000020         -6.1297603920780853E-029
  0.72500000000000009         -9.8036457860745288E-029
  0.72800000000000020         -1.2896793698738832E-028
  0.73100000000000009         -1.4622717847909963E-028
  0.73400000000000021         -1.4188938216528100E-028
  0.73700000000000010         -1.0942817283488801E-028
  0.74000000000000021         -4.5377328569429505E-029
  0.74300000000000010          4.9046928057677975E-029
  0.74600000000000022          1.6666975161034456E-028
  0.74900000000000011          2.9376481294580735E-028
  0.75200000000000022          4.1045553634082783E-028
  0.75500000000000012          4.9233894963768437E-028
  0.75800000000000001          5.1340786265964115E-028
  0.76100000000000012          4.5014317494689729E-028
  0.76400000000000001          2.8640642907057976E-028
  0.76700000000000013          1.8519929905993411E-029
  0.77000000000000002         -3.4028638891767343E-028
  0.77300000000000013         -7.5700227298502122E-028
  0.77600000000000002         -1.1784814010765148E-027
  0.77900000000000014         -1.5343808904909265E-027
  0.78200000000000003         -1.7438443523545764E-027
  0.78500000000000014         -1.7258758809003094E-027
  0.78800000000000003         -1.4127412736192875E-027
  0.79100000000000015         -7.6504236531285957E-028
  0.79400000000000004          2.1350899710250033E-028
  0.79700000000000015          1.4640926483664731E-027
  0.80000000000000004          2.8662346616237787E-027
  0.80300000000000016          4.2392675103457817E-027
  0.80600000000000005          5.3537396508883524E-027
  0.80900000000000016          5.9537091350312589E-027
  0.81200000000000006          5.7893898291485038E-027
  0.81500000000000017          4.6579090933940098E-027
  0.81800000000000006          2.4480896448050792E-027
  0.82100000000000017         -8.1648346412336687E-028
  0.82400000000000007         -4.9430855222729518E-027
  0.82700000000000018         -9.5516665985243014E-027
  0.83000000000000007         -1.4079834974086278E-026
  0.83300000000000018         -1.7816436980093640E-026
  0.83600000000000008         -1.9966271489451780E-026
  0.83900000000000019         -1.9744694610447490E-026
  0.84200000000000008         -1.6496176040446645E-026
  0.84500000000000020         -9.8259316289233705E-027
  0.84800000000000009          2.7085054352783321E-028
  0.85100000000000020          1.3301272909491826E-026
  0.85400000000000009          2.8209308300058102E-026
  0.85700000000000021          4.3372935199738920E-026
  0.86000000000000010          5.6680463527867124E-026
  0.86300000000000021          6.5695848198720735E-026
  0.86600000000000010          6.7913171592875155E-026
  0.86900000000000022          6.1088121350919483E-026
  0.87200000000000011          4.3621084611144880E-026
  0.87500000000000022          1.4952753166531520E-026
  0.87800000000000011         -2.4078035307000154E-026
  0.88100000000000001         -7.0972236363422984E-026
  0.88400000000000012         -1.2146417464163249E-025
  0.88700000000000001         -1.6962488095815472E-025
  0.89000000000000012         -2.0821539955623334E-025
  0.89300000000000002         -2.2930739870509462E-025
  0.89600000000000013         -2.2515803895124921E-025
  0.89900000000000002         -1.8928964076095522E-025
  0.90200000000000014         -1.1768547543530884E-025
  0.90500000000000003         -9.9763152419822250E-027
  0.90800000000000014          1.2953846524763753E-025
  0.91100000000000003          2.9120848275000056E-025
  0.91400000000000015          4.5986426369068391E-025
  0.91700000000000004          6.1531443761229411E-025
  0.92000000000000015          7.3361694009483621E-025
  0.92300000000000004          7.8915914970166355E-025
  0.92600000000000016          7.5749141885128667E-025
  0.92900000000000005          6.1874948169463931E-025
  0.93200000000000016          3.6138560471219227E-025
  0.93500000000000005         -1.4176173028626944E-026
  0.93800000000000017         -4.9243799081962320E-025
  0.94100000000000006         -1.0408010445050532E-024
  0.94400000000000017         -1.6091381519521641E-024
  0.94700000000000006         -2.1314247710595792E-024
  0.95000000000000018         -2.5297451660059814E-024
  0.95300000000000007         -2.7207930989762848E-024
  0.95600000000000018         -2.6246967304483828E-024
  0.95900000000000007         -2.1756907929328669E-024
  0.96200000000000019         -1.3338186569189925E-024
  0.96500000000000008         -9.6500534033027519E-026
  0.96800000000000019          1.4914322424137407E-024
  0.97100000000000009          3.3308341551775833E-024
  0.97400000000000020          5.2660653042385927E-024
  0.97700000000000009          7.0889845532997880E-024
  0.98000000000000020          8.5501743853294092E-024
  0.98300000000000010          9.3778851233191155E-024
  0.98600000000000021          9.3044087678750685E-024
  0.98900000000000010          8.0986402844099220E-024
  0.99200000000000021          5.6025929011891604E-024
  0.99500000000000011          1.7686053598749878E-024
  0.99800000000000022         -3.3068580714203358E-024
   1.0010000000000001         -9.3575513945874615E-024
   1.0040000000000002         -1.5934875112289503E-023
   1.0070000000000001         -2.2413023042535484E-023
   1.0100000000000000         -2.8015667638289920E-023
   1.0130000000000001         -3.1866369347998735E-023
   1.0160000000000000         -3.3062967272868279E-023
   1.0190000000000001         -3.0773308530097468E-023
   1.0220000000000000         -2.4346985709284402E-023
   1.0250000000000001         -1.3434424541084417E-023
   1.0280000000000000          1.8980794751363133E-024
   1.0310000000000001          2.1071035620939913E-023
   1.0340000000000000          4.2927224866164488E-023
   1.0370000000000001          6.5715080529983945E-023
   1.0400000000000000          8.7133133733373282E-023
   1.0430000000000001          1.0444583324182984E-022
   1.0460000000000000          1.1467521594008505E-022
   1.0490000000000002          1.1486578766983706E-022
   1.0520000000000000          1.0241212613488640E-022
   1.0550000000000002          7.5428753961796972E-023
   1.0580000000000001          3.3132909166304044E-023
   1.0610000000000002         -2.3797495829280730E-023
   1.0640000000000001         -9.2934822430085323E-023
   1.0670000000000002         -1.6992848415869687E-022
   1.0700000000000001         -2.4849408457079568E-022
   1.0730000000000002         -3.2060382160861484E-022
   1.0760000000000001         -3.7690739618963442E-022
   1.0790000000000002         -4.0739337030306832E-022
   1.0820000000000001         -4.0227959044729559E-022
   1.0850000000000002         -3.5309460675472349E-022
   1.0880000000000001         -2.5388349708437058E-022
   1.0910000000000002         -1.0244265544519223E-022
   1.0940000000000001          9.8535267048447743E-023
   1.0970000000000002          3.4054647140599245E-022
