 -0.39999999999999997          0.0000000000000000     
 -0.39699999999999996          0.0000000000000000     
 -0.39399999999999996          0.0000000000000000     
 -0.39099999999999996          0.0000000000000000     
 -0.38799999999999996          0.0000000000000000     
 -0.38499999999999995          0.0000000000000000     
 -0.38199999999999995          0.0000000000000000     
 -0.37899999999999995          0.0000000000000000     
 -0.37599999999999995          0.0000000000000000     
 -0.37299999999999994          0.0000000000000000     
 -0.37000000000000000          0.0000000000000000     
 -0.36699999999999999          0.0000000000000000     
 -0.36399999999999999          0.0000000000000000     
 -0.36099999999999999          0.0000000000000000     
 -0.35799999999999998          0.0000000000000000     
 -0.35499999999999998          0.0000000000000000     
 -0.35199999999999998          0.0000000000000000     
 -0.34899999999999998          0.0000000000000000     
 -0.34599999999999997          0.0000000000000000     
 -0.34299999999999997          0.0000000000000000     
 -0.33999999999999997          0.0000000000000000     
 -0.33699999999999997          0.0000000000000000     
 -0.33399999999999996          0.0000000000000000     
 -0.33099999999999996          0.0000000000000000     
 -0.32799999999999996          0.0000000000000000     
 -0.32499999999999996          0.0000000000000000     
 -0.32199999999999995          0.0000000000000000     
 -0.31899999999999995          0.0000000000000000     
 -0.31599999999999995          0.0000000000000000     
 -0.31299999999999994          0.0000000000000000     
 -0.30999999999999994          0.0000000000000000     
 -0.30699999999999994          0.0000000000000000     
 -0.30399999999999994          0.0000000000000000     
 -0.30099999999999993          0.0000000000000000     
 -0.29799999999999993          0.0000000000000000     
 -0.29499999999999998          0.0000000000000000     
 -0.29199999999999998          0.0000000000000000     
 -0.28899999999999998          0.0000000000000000     
 -0.28599999999999998          0.0000000000000000     
 -0.28299999999999997          0.0000000000000000     
 -0.27999999999999997          0.0000000000000000     
 -0.27699999999999997          0.0000000000000000     
 -0.27399999999999997          0.0000000000000000     
 -0.27099999999999996          0.0000000000000000     
 -0.26799999999999996          0.0000000000000000     
 -0.26499999999999996          0.0000000000000000     
 -0.26199999999999996          0.0000000000000000     
 -0.25899999999999995          0.0000000000000000     
 -0.25599999999999995          0.0000000000000000     
 -0.25300000000000000          0.0000000000000000     
 -0.24999999999999997          0.0000000000000000     
 -0.24699999999999997          0.0000000000000000     
 -0.24399999999999997          0.0000000000000000     
 -0.24099999999999996          0.0000000000000000     
 -0.23799999999999996          0.0000000000000000     
 -0.23499999999999996          0.0000000000000000     
 -0.23199999999999996          0.0000000000000000     
 -0.22899999999999995          0.0000000000000000     
 -0.22599999999999995          0.0000000000000000     
 -0.22299999999999998          0.0000000000000000     
 -0.21999999999999997          0.0000000000000000     
 -0.21699999999999997          0.0000000000000000     
 -0.21399999999999997          0.0000000000000000     
 -0.21099999999999997          0.0000000000000000     
 -0.20799999999999996          0.0000000000000000     
 -0.20499999999999996          0.0000000000000000     
 -0.20199999999999996          0.0000000000000000     
 -0.19899999999999995          0.0000000000000000     
 -0.19599999999999995          0.0000000000000000     
 -0.19299999999999995          0.0000000000000000     
 -0.18999999999999997          0.0000000000000000     
 -0.18699999999999997          0.0000000000000000     
 -0.18399999999999997          0.0000000000000000     
 -0.18099999999999997          1.0369009783390684E-041
 -0.17799999999999996          0.0000000000000000     
 -0.17499999999999996         -2.7792655919384045E-041
 -0.17199999999999996         -1.9133410648381784E-041
 -0.16899999999999996          1.1636510121934186E-039
 -0.16599999999999995          2.4245783066332347E-041
 -0.16299999999999995         -2.0403496093777787E-039
 -0.15999999999999998         -1.4027913284628049E-039
 -0.15699999999999997          1.1793187901034965E-039
 -0.15399999999999997          5.8086333358678754E-039
 -0.15099999999999997          7.9842947655444819E-039
 -0.14799999999999996         -3.3914251125864228E-038
 -0.14499999999999996         -5.5036178515667068E-038
 -0.14199999999999996          7.0836427641326329E-038
 -0.13899999999999996          2.4679428615585292E-037
 -0.13599999999999995         -8.1418518564852966E-039
 -0.13299999999999995         -6.9562600051401967E-037
 -0.12999999999999995         -6.2196761006295471E-037
 -0.12699999999999995          1.1413335697361202E-036
 -0.12399999999999994          2.8563432277805978E-036
 -0.12099999999999994          5.8365208729701885E-037
 -0.11799999999999994         -6.9550122231301880E-036
 -0.11499999999999994         -1.1188075699386933E-035
 -0.11199999999999993          4.9999340874851419E-036
 -0.10899999999999999          3.9434513559532064E-035
 -0.10599999999999998          3.6884933402976693E-035
 -0.10299999999999998         -6.4052681430328289E-035
  -9.9999999999999978E-002    -1.8392977125595180E-034
  -9.6999999999999975E-002    -6.5548351075296950E-035
  -9.3999999999999972E-002     4.0518806785762496E-034
  -9.0999999999999970E-002     7.2506701349790052E-034
  -8.7999999999999967E-002    -7.5572160056022474E-035
  -8.4999999999999964E-002    -2.0502863465220595E-033
  -8.1999999999999962E-002    -2.7179432863061084E-033
  -7.8999999999999959E-002     1.6128178356893075E-033
  -7.5999999999999956E-002     9.5822997199850520E-033
  -7.2999999999999954E-002     9.5338359902757959E-033
  -6.9999999999999951E-002    -1.1416402523774557E-032
  -6.6999999999999948E-002    -4.1589922055731903E-032
  -6.3999999999999946E-002    -3.1580612568196694E-032
  -6.0999999999999943E-002     6.0674585087040842E-032
  -5.7999999999999940E-002     1.7239777250580178E-031
  -5.4999999999999938E-002     1.0446136494104911E-031
  -5.1999999999999935E-002    -2.8272318204252307E-031
  -4.8999999999999932E-002    -6.9860594937754827E-031
  -4.5999999999999985E-002    -3.5614540022611266E-031
  -4.2999999999999983E-002     1.2133046027279000E-030
  -3.9999999999999980E-002     2.7790191161838442E-030
  -3.6999999999999977E-002     1.3100855333267872E-030
  -3.3999999999999975E-002    -4.8518094476729448E-030
  -3.0999999999999972E-002    -1.0907904787407789E-029
  -2.7999999999999969E-002    -5.3683331853677302E-030
  -2.4999999999999967E-002     1.8186365527043360E-029
  -2.1999999999999964E-002     4.2265591154276885E-029
  -1.8999999999999961E-002     2.3898278284983797E-029
  -1.5999999999999959E-002    -6.3498787924216156E-029
  -1.2999999999999956E-002    -1.6065440518430442E-028
  -9.9999999999999534E-003    -1.1019848547312254E-028
  -6.9999999999999507E-003     2.0200879472428079E-028
  -3.9999999999999480E-003     5.9354436713196814E-028
  -9.9999999999994538E-004     5.0412391908437732E-028
   2.0000000000000573E-003    -5.5678073151082874E-028
   5.0000000000000600E-003    -2.1036216563878124E-027
   8.0000000000000626E-003    -2.2203090785583520E-027
   1.1000000000000065E-002     1.1399417030871594E-027
   1.4000000000000068E-002     7.0219006955414061E-027
   1.7000000000000015E-002     9.2412738431268897E-027
   2.0000000000000018E-002    -3.3417015544221571E-028
   2.3000000000000020E-002    -2.1486036573562348E-026
   2.6000000000000023E-002    -3.5843308319804666E-026
   2.9000000000000026E-002    -1.3103708624077921E-026
   3.2000000000000028E-002     5.7406006963715965E-026
   3.5000000000000031E-002     1.2764697165215313E-025
   3.8000000000000034E-002     9.3340802532161690E-026
   4.1000000000000036E-002    -1.1859402488829538E-025
   4.4000000000000039E-002    -4.0875850241131024E-025
   4.7000000000000042E-002    -4.5225562039466777E-025
   5.0000000000000044E-002     9.4428721846360945E-026
   5.3000000000000047E-002     1.1339013095497453E-024
   5.6000000000000050E-002     1.7796943197925915E-024
   5.9000000000000052E-002     7.1320531252757218E-025
   6.2000000000000055E-002    -2.4975542196496865E-024
   6.5000000000000058E-002    -5.8827009506822605E-024
   6.8000000000000060E-002    -5.1588441267115029E-024
   7.1000000000000063E-002     3.0722451570023276E-024
   7.4000000000000066E-002     1.6036015416752426E-023
   7.7000000000000068E-002     2.2095115937712467E-023
   8.0000000000000016E-002     6.5825187784679688E-024
   8.3000000000000018E-002    -3.2915235593017146E-023
   8.6000000000000021E-002    -7.1686602784261181E-023
   8.9000000000000024E-002    -6.1938661725757626E-023
   9.2000000000000026E-002     3.1618540225281953E-023
   9.5000000000000029E-002     1.7821050568726934E-022
   9.8000000000000032E-002     2.5626283304192388E-022
  0.10100000000000003          1.1181191139839047E-022
  0.10400000000000004         -2.9426308670459816E-022
  0.10700000000000004         -7.4062966517738612E-022
  0.11000000000000004         -7.6610204783119409E-022
  0.11300000000000004          2.7199175774948905E-023
  0.11600000000000005          1.4867395275010741E-021
  0.11900000000000005          2.6155117825385259E-021
  0.12200000000000005          1.9394064261742288E-021
  0.12500000000000006         -1.3302928027904762E-021
  0.12800000000000006         -5.9334763510525154E-021
  0.13100000000000006         -8.2456234875307612E-021
  0.13400000000000006         -4.1179307113550349E-021
  0.13700000000000007          7.3781485783525437E-021
  0.14000000000000007          2.0622681472341113E-020
  0.14300000000000007          2.4084140525063753E-020
  0.14600000000000007          7.0982530776176772E-021
  0.14900000000000008         -2.9403761471271511E-020
  0.15200000000000008         -6.5583438785270825E-020
  0.15500000000000008         -6.7836493418440152E-020
  0.15800000000000008         -9.8862025301300419E-021
  0.16100000000000009          9.8772215586658745E-020
  0.16400000000000009          1.9747965794491332E-019
  0.16700000000000009          1.9348947162674065E-019
  0.17000000000000010          2.0221159326742723E-020
  0.17300000000000010         -2.9063186121825357E-019
  0.17600000000000010         -5.7405894466549767E-019
  0.17899999999999999         -5.8280600004942201E-019
  0.18200000000000000         -1.3212753484302658E-019
  0.18500000000000000          7.2219598990587724E-019
  0.18800000000000000          1.5880788494647281E-018
  0.19100000000000000          1.8348614242772121E-018
  0.19400000000000001          9.1018672776849982E-019
  0.19700000000000001         -1.2381033996044683E-018
  0.20000000000000001         -3.8685581947091755E-018
  0.20300000000000001         -5.5275404683387174E-018
  0.20600000000000002         -4.6135407133016583E-018
  0.20900000000000002         -2.8030437636494290E-019
  0.21200000000000002          6.7151940655122513E-018
  0.21500000000000002          1.3718695604822014E-017
  0.21800000000000003          1.6801895698855877E-017
  0.22100000000000003          1.2304383445471452E-017
  0.22400000000000003         -1.1646647484268345E-018
  0.22700000000000004         -2.1086250186197626E-017
  0.23000000000000004         -4.0653063254861514E-017
  0.23300000000000004         -5.0254608995844772E-017
  0.23600000000000004         -4.0786928849748593E-017
  0.23900000000000005         -7.9434490232054494E-018
  0.24200000000000005          4.4044121759221776E-017
  0.24500000000000005          1.0099869541302806E-016
  0.24800000000000005          1.4108297844986522E-016
  0.25100000000000006          1.4100571406734894E-016
  0.25400000000000006          8.4812559113940312E-017
  0.25700000000000006         -2.7512423231223181E-017
  0.26000000000000006         -1.7504897247578891E-016
  0.26300000000000007         -3.1733864083947367E-016
  0.26600000000000007         -4.0309731592454209E-016
  0.26900000000000007         -3.8463628782546523E-016
  0.27200000000000008         -2.3413935687894165E-016
  0.27500000000000008          4.3087646991876836E-017
  0.27800000000000008          4.0276072490680819E-016
  0.28100000000000008          7.6561918591147755E-016
  0.28400000000000009          1.0312805312053723E-015
  0.28700000000000009          1.0995871559627676E-015
  0.29000000000000009          8.9544877266444872E-016
  0.29300000000000009          3.9222941724984252E-016
  0.29600000000000010         -3.7140579383069497E-016
  0.29900000000000010         -1.2858045715505369E-015
  0.30200000000000010         -2.1789240868223968E-015
  0.30499999999999999         -2.8400204624670349E-015
  0.30800000000000000         -3.0560771557055456E-015
  0.31100000000000000         -2.6555499027528969E-015
  0.31400000000000000         -1.5518670166805678E-015
  0.31700000000000000          2.2150246195749984E-016
  0.32000000000000001          2.4915307816698489E-015
  0.32300000000000001          4.9469062364443117E-015
  0.32600000000000001          7.1626862585364582E-015
  0.32900000000000001          8.6485390432683589E-015
  0.33200000000000002          8.9180809948258106E-015
  0.33500000000000002          7.5733680513284455E-015
  0.33800000000000002          4.3951925495557623E-015
  0.34100000000000003         -5.7372108248406352E-016
  0.34400000000000003         -6.9680296526761355E-015
  0.34700000000000003         -1.4076824524163556E-014
  0.35000000000000003         -2.0871623484409548E-014
  0.35300000000000004         -2.6093406405098368E-014
  0.35600000000000004         -2.8399387558753130E-014
  0.35900000000000004         -2.6561214565739886E-014
  0.36200000000000004         -1.9694977773274528E-014
  0.36500000000000005         -7.4939898694407664E-015
  0.36800000000000005          9.5739636141401109E-015
  0.37100000000000005          3.0144950403267762E-014
  0.37400000000000005          5.1949285492831294E-014
  0.37700000000000006          7.1938880070416697E-014
  0.38000000000000006          8.6560572273929460E-014
  0.38300000000000006          9.2162684292912238E-014
  0.38600000000000007          8.5503310968626881E-014
  0.38900000000000007          6.4308040176247675E-014
  0.39200000000000007          2.7811202186208457E-014
  0.39500000000000007         -2.2797136009172133E-014
  0.39800000000000008         -8.4094662587291386E-014
  0.40100000000000008         -1.5038964970990298E-013
  0.40400000000000008         -2.1397277378902549E-013
  0.40700000000000008         -2.6567600949526037E-013
  0.41000000000000009         -2.9572640868796949E-013
  0.41300000000000009         -2.9484213974830170E-013
  0.41600000000000009         -2.5548752912345859E-013
  0.41900000000000009         -1.7316353328507768E-013
  0.42200000000000010         -4.7599585378914486E-014
  0.42500000000000010          1.1631602568945356E-013
  0.42800000000000010          3.0801398947873159E-013
  0.43100000000000011          5.1126674674981032E-013
  0.43400000000000000          7.0484937175311376E-013
  0.43700000000000000          8.6388606304533721E-013
  0.44000000000000000          9.6186211135496646E-013
  0.44300000000000000          9.7321064002601553E-013
  0.44600000000000001          8.7630391018337210E-013
  0.44900000000000001          6.5662003249228341E-013
  0.45200000000000001          3.0976215472792786E-013
  0.45500000000000002         -1.5600494798524008E-013
  0.45800000000000002         -7.1805852078941423E-013
  0.46100000000000002         -1.3388794464859963E-012
  0.46400000000000002         -1.9669084609481741E-012
  0.46700000000000003         -2.5389789463274675E-012
  0.47000000000000003         -2.9843078951323311E-012
  0.47300000000000003         -3.2299611154442035E-012
  0.47600000000000003         -3.2074530427505844E-012
  0.47900000000000004         -2.8601329530072425E-012
  0.48200000000000004         -2.1506965078514430E-012
  0.48500000000000004         -1.0681968640600542E-012
  0.48800000000000004          3.6621177722818993E-013
  0.49100000000000005          2.0954259103534087E-012
  0.49400000000000005          4.0252173156889551E-012
  0.49700000000000005          6.0261175179858375E-012
  0.50000000000000000          7.9387068019876928E-012
  0.50300000000000011          9.5824107969689564E-012
  0.50600000000000001          1.0767543785335464E-011
  0.50900000000000012          1.1310159055395234E-011
  0.51200000000000001          1.1048833743661747E-011
  0.51500000000000012          9.8624542386924979E-012
  0.51800000000000002          7.6875914712414573E-012
  0.52100000000000013          4.5341962622642726E-012
  0.52400000000000002          4.9818450976761926E-013
  0.52700000000000014         -4.2308441867836965E-012
  0.53000000000000003         -9.3675235348454591E-012
  0.53300000000000014         -1.4535484625272736E-011
  0.53600000000000003         -1.9279588177268558E-011
  0.53900000000000015         -2.3085671894023019E-011
  0.54200000000000004         -2.5407349237891535E-011
  0.54500000000000015         -2.5699343576227399E-011
  0.54800000000000004         -2.3455315710553506E-011
  0.55100000000000016         -1.8248995322742155E-011
  0.55400000000000005         -9.7762182118385575E-012
  0.55700000000000016          2.1048784595329332E-012
  0.56000000000000005          1.7337451104263600E-011
  0.56299999999999994          3.5635941429841868E-011
  0.56600000000000006          5.6464347434743576E-011
  0.56899999999999995          7.9024462125877392E-011
  0.57200000000000006          1.0225418170951214E-010
  0.57499999999999996          1.2483772806818960E-010
  0.57800000000000007          1.4522466505130354E-010
  0.58099999999999996          1.6165851810487745E-010
  0.58400000000000007          1.7220979855114648E-010
  0.58699999999999997          1.7481264586584558E-010
  0.59000000000000008          1.6730171542524551E-010
  0.59299999999999997          1.4743953137018765E-010
  0.59600000000000009          1.1293401657232142E-010
  0.59899999999999998          6.1446227017290768E-011
  0.60200000000000009         -9.4309880579843932E-012
  0.60500000000000020         -1.0221260435841463E-010
  0.60800000000000010         -2.1959248093868342E-010
  0.61100000000000021         -3.6454344214749217E-010
  0.61400000000000010         -5.4045394877985416E-010
  0.61700000000000021         -7.5130080122363797E-010
  0.62000000000000011         -1.0018486397944232E-009
  0.62300000000000022         -1.2979011270949474E-009
  0.62600000000000011         -1.6465747298712531E-009
  0.62900000000000000         -2.0565950425307950E-009
  0.63200000000000012         -2.5386743384764907E-009
  0.63500000000000001         -3.1058236915510435E-009
  0.63800000000000012         -3.7737973775724530E-009
  0.64100000000000001         -4.5615249377929827E-009
  0.64400000000000013         -5.4915310635066681E-009
  0.64700000000000002         -6.5904513237876478E-009
  0.65000000000000013         -7.8895685797757463E-009
  0.65300000000000002         -9.4253274191281200E-009
  0.65600000000000014         -1.1239982823037277E-008
  0.65900000000000003         -1.3382260727697660E-008
  0.66200000000000014         -1.5907983659223820E-008
  0.66500000000000004         -1.8880969701304306E-008
  0.66800000000000015         -2.2373830910394616E-008
  0.67100000000000004         -2.6468971785357002E-008
  0.67400000000000015         -3.1259601806753485E-008
  0.67700000000000005         -3.6850483055943046E-008
  0.68000000000000016         -4.3359954104143036E-008
  0.68300000000000005         -5.0920701412936017E-008
  0.68600000000000017         -5.9681178462238043E-008
  0.68900000000000006         -6.9807228489472114E-008
  0.69200000000000017         -8.1484083528558658E-008
  0.69500000000000006         -9.4917389836522708E-008
  0.69800000000000018         -1.1033533879267601E-007
  0.70100000000000007         -1.2799016584852511E-007
  0.70400000000000018         -1.4816181090758312E-007
  0.70700000000000007         -1.7115615675965211E-007
  0.71000000000000019         -1.9730938431946758E-007
  0.71300000000000008         -2.2698922426205962E-007
  0.71600000000000019         -2.6059590381036696E-007
  0.71900000000000008         -2.9856521764439828E-007
  0.72200000000000020         -3.4136748014639944E-007
  0.72500000000000009         -3.8950845772000248E-007
  0.72800000000000020         -4.4353159697954312E-007
  0.73100000000000009         -5.0401800823387740E-007
  0.73400000000000021         -5.7158131795774751E-007
  0.73700000000000010         -6.4687524456317017E-007
  0.74000000000000021         -7.3058851176554634E-007
  0.74300000000000010         -8.2343755453187548E-007
  0.74600000000000022         -9.2616737788409705E-007
  0.74900000000000011         -1.0395510396461738E-006
  0.75200000000000022         -1.1643823175126707E-006
  0.75500000000000012         -1.3014723571970223E-006
  0.75800000000000001         -1.4516299474512857E-006
  0.76100000000000012         -1.6156717837698162E-006
  0.76400000000000001         -1.7944059054116456E-006
  0.76700000000000013         -1.9886226266770424E-006
  0.77000000000000002         -2.1990670272623610E-006
  0.77300000000000013         -2.4264673229588691E-006
  0.77600000000000002         -2.6714752236087615E-006
  0.77900000000000014         -2.9346736258725070E-006
  0.78200000000000003         -3.2165411622072080E-006
  0.78500000000000014         -3.5174790986662376E-006
  0.78800000000000003         -3.8377355554295897E-006
  0.79100000000000015         -4.1774399667870541E-006
  0.79400000000000004         -4.5365161600879431E-006
  0.79700000000000015         -4.9147687365935135E-006
  0.80000000000000004         -5.3116786975522702E-006
  0.80300000000000016         -5.7266037493094138E-006
  0.80600000000000005         -6.1586094281534236E-006
  0.80900000000000016         -6.6064892454664704E-006
  0.81200000000000006         -7.0687433093605303E-006
  0.81500000000000017         -7.5435657988608158E-006
  0.81800000000000006         -8.0287717505948080E-006
  0.82100000000000017         -8.5219494149860789E-006
  0.82400000000000007         -9.0201899920189030E-006
  0.82700000000000018         -9.5203994027177949E-006
  0.83000000000000007         -1.0018935604988562E-005
  0.83300000000000018         -1.0511878761547455E-005
  0.83600000000000008         -1.0994923245219164E-005
  0.83900000000000019         -1.1463459537659904E-005
  0.84200000000000008         -1.1912363908233094E-005
  0.84500000000000020         -1.2336535426437154E-005
  0.84800000000000009         -1.2730250667526673E-005
  0.85100000000000020         -1.3087598344110548E-005
  0.85400000000000009         -1.3402597544028816E-005
  0.85700000000000021         -1.3668931940859043E-005
  0.86000000000000010         -1.3880204638726198E-005
  0.86300000000000021         -1.4029961642682863E-005
  0.86600000000000010         -1.4111740488571892E-005
  0.86900000000000022         -1.4119186565459529E-005
  0.87200000000000011         -1.4045997024821800E-005
  0.87500000000000022         -1.3886240418469225E-005
  0.87800000000000011         -1.3634349647035543E-005
  0.88100000000000001         -1.3284665818275458E-005
  0.88400000000000012         -1.2832538352053207E-005
  0.88700000000000001         -1.2273722093145280E-005
  0.89000000000000012         -1.1604657857307518E-005
  0.89300000000000002         -1.0822410074149085E-005
  0.89600000000000013         -9.9250268215551772E-006
  0.89900000000000002         -8.9113932569197753E-006
  0.90200000000000014         -7.7813030384973453E-006
  0.90500000000000003         -6.5360134770409509E-006
  0.90800000000000014         -5.1772224178215250E-006
  0.91100000000000003         -3.7083118096658692E-006
  0.91400000000000015         -2.1336891529901773E-006
  0.91700000000000004         -4.5898925851043811E-007
  0.92000000000000015          1.3089723621603814E-006
  0.92300000000000004          3.1621749389905689E-006
  0.92600000000000016          5.0911863131916601E-006
  0.92900000000000005          7.0855043862430144E-006
  0.93200000000000016          9.1336089889718662E-006
  0.93500000000000005          1.1223059112684085E-005
  0.93800000000000017          1.3340095171313746E-005
  0.94100000000000006          1.5470261596132593E-005
  0.94400000000000017          1.7598401832563297E-005
  0.94700000000000006          1.9708687423303375E-005
  0.95000000000000018          2.1784777675815532E-005
  0.95300000000000007          2.3810092392553780E-005
  0.95600000000000018          2.5768051999915971E-005
  0.95900000000000007          2.7641919754437168E-005
  0.96200000000000019          2.9414928615401012E-005
  0.96500000000000008          3.1071095404187068E-005
  0.96800000000000019          3.2594857336488708E-005
  0.97100000000000009          3.3971418847251415E-005
  0.97400000000000020          3.5186740824229590E-005
  0.97700000000000009          3.6228184621015510E-005
  0.98000000000000020          3.7084214389527255E-005
  0.98300000000000010          3.7744567261288781E-005
  0.98600000000000021          3.8200764698727490E-005
  0.98900000000000010          3.8445945422380630E-005
  0.99200000000000021          3.8475080083539904E-005
  0.99500000000000011          3.8284653804943522E-005
  0.99800000000000022          3.7873523879425526E-005
   1.0010000000000001          3.7242404448487308E-005
   1.0040000000000002          3.6393676487342844E-005
   1.0070000000000001          3.5332005689349646E-005
   1.0100000000000000          3.4063703108879287E-005
   1.0130000000000001          3.2597503394435633E-005
   1.0160000000000000          3.0943433996270465E-005
   1.0190000000000001          2.9113360287019549E-005
   1.0220000000000000          2.7120760086427779E-005
   1.0250000000000001          2.4980640258379031E-005
   1.0280000000000000          2.2709152386128969E-005
   1.0310000000000001          2.0323335905041526E-005
   1.0340000000000000          1.7841666498975504E-005
   1.0370000000000001          1.5283232060078309E-005
   1.0400000000000000          1.2667126191023852E-005
   1.0430000000000001          1.0013298294315852E-005
   1.0460000000000000          7.3415864954797518E-006
   1.0490000000000002          4.6718365631076796E-006
   1.0520000000000000          2.0234055950884498E-006
   1.0550000000000002         -5.8488383753021618E-007
   1.0580000000000001         -3.1344286131825216E-006
   1.0610000000000002         -5.6081824787446522E-006
   1.0640000000000001         -7.9897034722903864E-006
   1.0670000000000002         -1.0263954496669139E-005
   1.0700000000000001         -1.2417462869867767E-005
   1.0730000000000002         -1.4437358628261036E-005
   1.0760000000000001         -1.6312917702271280E-005
   1.0790000000000002         -1.8035051761042293E-005
   1.0820000000000001         -1.9596031284474618E-005
   1.0850000000000002         -2.0989931100889554E-005
   1.0880000000000001         -2.2212512720904369E-005
   1.0910000000000002         -2.3261431634279476E-005
   1.0940000000000001         -2.4135294948491780E-005
   1.0970000000000002         -2.4834919030981226E-005
