 -0.39999999999999997          0.0000000000000000     
 -0.39699999999999996          0.0000000000000000     
 -0.39399999999999996          0.0000000000000000     
 -0.39099999999999996          0.0000000000000000     
 -0.38799999999999996          0.0000000000000000     
 -0.38499999999999995          0.0000000000000000     
 -0.38199999999999995          0.0000000000000000     
 -0.37899999999999995          0.0000000000000000     
 -0.37599999999999995          0.0000000000000000     
 -0.37299999999999994          0.0000000000000000     
 -0.37000000000000000          0.0000000000000000     
 -0.36699999999999999          0.0000000000000000     
 -0.36399999999999999          0.0000000000000000     
 -0.36099999999999999          0.0000000000000000     
 -0.35799999999999998          0.0000000000000000     
 -0.35499999999999998          0.0000000000000000     
 -0.35199999999999998          0.0000000000000000     
 -0.34899999999999998          0.0000000000000000     
 -0.34599999999999997          0.0000000000000000     
 -0.34299999999999997          0.0000000000000000     
 -0.33999999999999997          0.0000000000000000     
 -0.33699999999999997          0.0000000000000000     
 -0.33399999999999996          0.0000000000000000     
 -0.33099999999999996          0.0000000000000000     
 -0.32799999999999996          0.0000000000000000     
 -0.32499999999999996          0.0000000000000000     
 -0.32199999999999995          0.0000000000000000     
 -0.31899999999999995          0.0000000000000000     
 -0.31599999999999995          0.0000000000000000     
 -0.31299999999999994          3.1638407055765171E-042
 -0.30999999999999994         -5.8531332619981635E-042
 -0.30699999999999994          4.5321229693598473E-041
 -0.30399999999999994          1.2367044249765958E-040
 -0.30099999999999993         -1.2949592297314283E-039
 -0.29799999999999993          2.5223600353772922E-039
 -0.29499999999999998          5.0908793779553579E-039
 -0.29199999999999998         -4.5747199727371047E-038
 -0.28899999999999998         -3.2902322076370575E-040
 -0.28599999999999998          3.7713342828569274E-037
 -0.28299999999999997         -6.8477861924526026E-037
 -0.27999999999999997         -1.6666807388699083E-036
 -0.27699999999999997          7.3850594941367891E-036
 -0.27399999999999997          1.0627179659704405E-036
 -0.27099999999999996         -4.9107433110181836E-035
 -0.26799999999999996          4.9813087183161414E-035
 -0.26499999999999996          2.3958056920088684E-034
 -0.26199999999999996         -5.1129041710509354E-034
 -0.25899999999999995         -8.7384014261345042E-034
 -0.25599999999999995          3.3755388541606241E-033
 -0.25300000000000000          2.0819559121942394E-033
 -0.24999999999999997         -1.7841491388011898E-032
 -0.24699999999999997          1.0966489297152636E-034
 -0.24399999999999997          8.1379378738076625E-032
 -0.24099999999999996         -3.5708492109843906E-032
 -0.23799999999999996         -3.3342734809651407E-031
 -0.23499999999999996          2.5418582435588859E-031
 -0.23199999999999996          1.2606480168359393E-030
 -0.22899999999999995         -1.2574227524788383E-030
 -0.22599999999999995         -4.4872417953551158E-030
 -0.22299999999999998          5.1123994981796398E-030
 -0.21999999999999997          1.5251110573824135E-029
 -0.21699999999999997         -1.7922990905763300E-029
 -0.21399999999999997         -4.9854660897500895E-029
 -0.21099999999999997          5.4757561903388995E-029
 -0.20799999999999996          1.5658944684718890E-028
 -0.20499999999999996         -1.4353641587123934E-028
 -0.20199999999999996         -4.6803551483103930E-028
 -0.19899999999999995          3.0445838660197042E-028
 -0.19599999999999995          1.3073533231378687E-027
 -0.19299999999999995         -4.2048435719395646E-028
 -0.18999999999999997         -3.3191333524857888E-027
 -0.18699999999999997         -2.0474187877015746E-028
 -0.18399999999999997          7.3209480257545740E-027
 -0.18099999999999997          3.8464077760379802E-027
 -0.17799999999999996         -1.2769265926796607E-026
 -0.17499999999999996         -1.5389186834913253E-026
 -0.17199999999999996          1.2437178590585728E-026
 -0.16899999999999996          3.9291574172907543E-026
 -0.16599999999999995          1.8321093555852976E-026
 -0.16299999999999995         -5.9789513296553699E-026
 -0.15999999999999998         -1.2660829853115290E-025
 -0.15699999999999997         -1.5230061966017792E-026
 -0.15399999999999997          3.2755727126433986E-025
 -0.15099999999999997          4.2929633706943064E-025
 -0.14799999999999996         -3.7253321952997343E-025
 -0.14499999999999996         -1.4720297362666317E-024
 -0.14199999999999996         -7.0154005302470625E-025
 -0.13899999999999996          2.6249098529271935E-024
 -0.13599999999999995          4.5788875690062810E-024
 -0.13299999999999995         -4.1617897695993861E-025
 -0.12999999999999995         -1.0794897202059589E-023
 -0.12699999999999995         -1.2980815581567464E-023
 -0.12399999999999994          7.7399749944004763E-024
 -0.12099999999999994          4.0665537719033810E-023
 -0.11799999999999994          3.6545072406626093E-023
 -0.11499999999999994         -4.5826454977996136E-023
 -0.11199999999999993         -1.4624198664707653E-022
 -0.10899999999999999         -9.2554119611546698E-023
 -0.10599999999999998          2.0550463394529588E-022
 -0.10299999999999998          4.9131576487019949E-022
  -9.9999999999999978E-002     2.2583240239448985E-022
  -9.6999999999999975E-002    -7.7810010348385465E-022
  -9.3999999999999972E-002    -1.6178583611870573E-021
  -9.0999999999999970E-002    -6.0362076776073278E-022
  -8.7999999999999967E-002     2.7196374750689455E-021
  -8.4999999999999964E-002     5.3239404609036372E-021
  -8.1999999999999962E-002     1.8513650365399449E-021
  -7.8999999999999959E-002    -8.9349531078006445E-021
  -7.5999999999999956E-002    -1.7392039622477924E-020
  -7.2999999999999954E-002    -6.7662567055748692E-021
  -6.9999999999999951E-002     2.7367591069705708E-020
  -6.6999999999999948E-002     5.6388601849282185E-020
  -6.3999999999999946E-002     2.7954658091406214E-020
  -6.0999999999999943E-002    -7.7364456828448475E-020
  -5.7999999999999940E-002    -1.8001795915526681E-019
  -5.4999999999999938E-002    -1.1777832242467591E-019
  -5.1999999999999935E-002     1.9470041326269980E-019
  -4.8999999999999932E-002     5.5595671594862036E-019
  -4.5999999999999985E-002     4.7789435936067793E-019
  -4.2999999999999983E-002    -3.9329748270166878E-019
  -3.9999999999999980E-002    -1.6250642510792702E-018
  -3.6999999999999977E-002    -1.8180160360142230E-018
  -3.3999999999999975E-002     3.8550021333892584E-019
  -3.0999999999999972E-002     4.3550644644436004E-018
  -2.7999999999999969E-002     6.3709026223109868E-018
  -2.4999999999999967E-002     1.6766649763490952E-018
  -2.1999999999999964E-002    -1.0099167810114248E-017
  -1.8999999999999961E-002    -2.0212697293581470E-017
  -1.5999999999999959E-002    -1.3613994722740462E-017
  -1.2999999999999956E-002     1.7430344900909262E-017
  -9.9999999999999534E-003     5.6515831796664537E-017
  -6.9999999999999507E-003     6.1469653064748805E-017
  -3.9999999999999480E-003    -6.5116420842269173E-018
  -9.9999999999994538E-004    -1.3172839426400889E-016
   2.0000000000000573E-003    -2.1386439473641469E-016
   5.0000000000000600E-003    -1.1323465300913114E-016
   8.0000000000000626E-003     2.1774851441217118E-016
   1.1000000000000065E-002     5.9763868936672675E-016
   1.4000000000000068E-002     6.2707202606910806E-016
   1.7000000000000015E-002    -4.1744474811744924E-017
   2.0000000000000018E-002    -1.2677549613124930E-015
   2.3000000000000020E-002    -2.1646382603443724E-015
   2.6000000000000023E-002    -1.4517701350105840E-015
   2.9000000000000026E-002     1.4819992027337901E-015
   3.2000000000000028E-002     5.3725162829932158E-015
   3.5000000000000031E-002     6.8894056160267727E-015
   3.8000000000000034E-002     2.4439538866474097E-015
   4.1000000000000036E-002    -8.3226431319232604E-015
   4.4000000000000039E-002    -1.9618378997514164E-014
   4.7000000000000042E-002    -2.0483192735979865E-014
   5.0000000000000044E-002    -1.6113458944308972E-015
   5.3000000000000047E-002     3.4306000453348816E-014
   5.6000000000000050E-002     6.6049252066430635E-014
   5.9000000000000052E-002     6.0056481375178000E-014
   6.2000000000000055E-002    -7.3772436364367627E-015
   6.5000000000000058E-002    -1.2100063519382783E-013
   6.8000000000000060E-002    -2.1215628592169850E-013
   7.1000000000000063E-002    -1.8193238023795419E-013
   7.4000000000000066E-002     3.3001423471599061E-014
   7.7000000000000068E-002     3.8049486739130602E-013
   8.0000000000000016E-002     6.5801376176113313E-013
   8.3000000000000018E-002     5.8123757708713407E-013
   8.6000000000000021E-002    -3.4898089396877327E-014
   8.9000000000000024E-002    -1.0603111845817967E-012
   9.2000000000000026E-002    -1.9511163849511849E-012
   9.5000000000000029E-002    -1.9164072028121309E-012
   9.8000000000000032E-002    -3.7643188959092904E-013
  0.10100000000000003          2.4708047100465874E-012
  0.10400000000000004          5.3383927041277886E-012
  0.10700000000000004          6.1612720531902220E-012
  0.11000000000000004          3.1306440315150381E-012
  0.11300000000000004         -3.9111092724764713E-012
  0.11600000000000005         -1.2501074102678679E-011
  0.11900000000000005         -1.7863520630123605E-011
  0.12200000000000005         -1.4861611549010933E-011
  0.12500000000000006         -1.0385232664308574E-012
  0.12800000000000006          2.0713763926294909E-011
  0.13100000000000006          4.1617027921703346E-011
  0.13400000000000006          4.9662038740286045E-011
  0.13700000000000007          3.4968548871159297E-011
  0.14000000000000007         -4.3174049696084430E-012
  0.14300000000000007         -5.8589443269577434E-011
  0.14600000000000007         -1.0813215273594092E-010
  0.14900000000000008         -1.2951224653655972E-010
  0.15200000000000008         -1.0477685920402118E-010
  0.15500000000000008         -2.9650555572210938E-011
  0.15800000000000008          8.2817908672513437E-011
  0.16100000000000009          2.0469524612317695E-010
  0.16400000000000009          3.0054758499213367E-010
  0.16700000000000009          3.3672936112478415E-010
  0.17000000000000010          2.8932190600554980E-010
  0.17300000000000010          1.4875375204762733E-010
  0.17600000000000010         -7.9151099485780866E-011
  0.17899999999999999         -3.7494497841734004E-010
  0.18200000000000000         -7.0950051736467156E-010
  0.18500000000000000         -1.0500159171593212E-009
  0.18800000000000000         -1.3679626780638395E-009
  0.19100000000000000         -1.6477369858410407E-009
  0.19400000000000001         -1.8932964280609039E-009
  0.19700000000000001         -2.1295257422352437E-009
  0.20000000000000001         -2.3966792384098842E-009
  0.20300000000000001         -2.7394922974265765E-009
  0.20600000000000002         -3.1957100467612135E-009
  0.20900000000000002         -3.7896336346128535E-009
  0.21200000000000002         -4.5337311846635476E-009
  0.21500000000000002         -5.4368700774901450E-009
  0.21800000000000003         -6.5138877628695285E-009
  0.22100000000000003         -7.7907949588780220E-009
  0.22400000000000003         -9.3030032440022747E-009
  0.22700000000000004         -1.1089027551089310E-008
  0.23000000000000004         -1.3185164603760576E-008
  0.23300000000000004         -1.5626011705667728E-008
  0.23600000000000004         -1.8451508186078296E-008
  0.23900000000000005         -2.1716513905181596E-008
  0.24200000000000005         -2.5497188073109915E-008
  0.24500000000000005         -2.9890383473074027E-008
  0.24800000000000005         -3.5007028526414327E-008
  0.25100000000000006         -4.0964175640040755E-008
  0.25400000000000006         -4.7881381788225213E-008
  0.25700000000000006         -5.5882613572876153E-008
  0.26000000000000006         -6.5102920512046212E-008
  0.26300000000000007         -7.5694432149508457E-008
  0.26600000000000007         -8.7829661709802599E-008
  0.26900000000000007         -1.0170107668264675E-007
  0.27200000000000008         -1.1751990072099139E-007
  0.27500000000000008         -1.3551748889542789E-007
  0.27800000000000008         -1.5594902280567166E-007
  0.28100000000000008         -1.7909841055811484E-007
  0.28400000000000009         -2.0528070517382435E-007
  0.28700000000000009         -2.3484128260898360E-007
  0.29000000000000009         -2.6815199389952411E-007
  0.29300000000000009         -3.0560809376387794E-007
  0.29600000000000010         -3.4762878847836259E-007
  0.29900000000000010         -3.9465893836118748E-007
  0.30200000000000010         -4.4717319114971877E-007
  0.30499999999999999         -5.0567524406679042E-007
  0.30800000000000000         -5.7069502765567736E-007
  0.31100000000000000         -6.4278407890690321E-007
  0.31400000000000000         -7.2251088224999261E-007
  0.31700000000000000         -8.1045705906304730E-007
  0.32000000000000001         -9.0722084327041345E-007
  0.32300000000000001         -1.0134115635326787E-006
  0.32600000000000001         -1.1296522436071478E-006
  0.32900000000000001         -1.2565670794669340E-006
  0.33200000000000002         -1.3947743944628496E-006
  0.33500000000000002         -1.5448779128021238E-006
  0.33800000000000002         -1.7074525813434318E-006
  0.34100000000000003         -1.8830428799327178E-006
  0.34400000000000003         -2.0721487161620181E-006
  0.34700000000000003         -2.2752209588036926E-006
  0.35000000000000003         -2.4926417349672943E-006
  0.35300000000000004         -2.7247109346854470E-006
  0.35600000000000004         -2.9716295296022285E-006
  0.35900000000000004         -3.2334738612906492E-006
  0.36200000000000004         -3.5101991059607136E-006
  0.36500000000000005         -3.8016038872475254E-006
  0.36800000000000005         -4.1073354574376211E-006
  0.37100000000000005         -4.4268713504385237E-006
  0.37400000000000005         -4.7594905957187877E-006
  0.37700000000000006         -5.1042724911015040E-006
  0.38000000000000006         -5.4600664017617732E-006
  0.38300000000000006         -5.8254828157592765E-006
  0.38600000000000007         -6.1988937859110973E-006
  0.38900000000000007         -6.5784316412811780E-006
  0.39200000000000007         -6.9619268958160917E-006
  0.39500000000000007         -7.3469575330165562E-006
  0.39800000000000008         -7.7308111557240739E-006
  0.40100000000000008         -8.1105048128156679E-006
  0.40400000000000008         -8.4827855484497305E-006
  0.40700000000000008         -8.8441550061870854E-006
  0.41000000000000009         -9.1908394480245488E-006
  0.41300000000000009         -9.5188504054784237E-006
  0.41600000000000009         -9.8239341723187825E-006
  0.41900000000000009         -1.0101666101342615E-005
  0.42200000000000010         -1.0347461762059231E-005
  0.42500000000000010         -1.0556575107147408E-005
  0.42800000000000010         -1.0724227708821794E-005
  0.43100000000000011         -1.0845584355751940E-005
  0.43400000000000000         -1.0915792422107237E-005
  0.43700000000000000         -1.0930081567899992E-005
  0.44000000000000000         -1.0883789184755027E-005
  0.44300000000000000         -1.0772386600451143E-005
  0.44600000000000001         -1.0591613978045850E-005
  0.44900000000000001         -1.0337514295731734E-005
  0.45200000000000001         -1.0006541041331913E-005
  0.45500000000000002         -9.5955006287200085E-006
  0.45800000000000002         -9.1017515181212438E-006
  0.46100000000000002         -8.5232404455960995E-006
  0.46400000000000002         -7.8584622177985393E-006
  0.46700000000000003         -7.1067105167826344E-006
  0.47000000000000003         -6.2679943960346474E-006
  0.47300000000000003         -5.3431088514880110E-006
  0.47600000000000003         -4.3335928029334882E-006
  0.47900000000000004         -3.2419439359819704E-006
  0.48200000000000004         -2.0715513617560543E-006
  0.48500000000000004         -8.2664979251291852E-007
  0.48800000000000004          4.8747779305181450E-007
  0.49100000000000005          1.8647143399835765E-006
  0.49400000000000005          3.2980572048931132E-006
  0.49700000000000005          4.7796143662872235E-006
  0.50000000000000000          6.3007524745195057E-006
  0.50300000000000011          7.8519679217080649E-006
  0.50600000000000001          9.4231010167206310E-006
  0.50900000000000012          1.1003304645136964E-005
  0.51200000000000001          1.2581238733906557E-005
  0.51500000000000012          1.4145068002095866E-005
  0.51800000000000002          1.5682690690124672E-005
  0.52100000000000013          1.7181785872192124E-005
  0.52400000000000002          1.8629987321892361E-005
  0.52700000000000014          2.0014897758652204E-005
  0.53000000000000003          2.1324294179771205E-005
  0.53300000000000014          2.2546286769502076E-005
  0.53600000000000003          2.3669379119008888E-005
  0.53900000000000015          2.4682700798060802E-005
  0.54200000000000004          2.5576108286923235E-005
  0.54500000000000015          2.6340287145736420E-005
  0.54800000000000004          2.6966868943216642E-005
  0.55100000000000016          2.7448547457676975E-005
  0.55400000000000005          2.7779188642757312E-005
  0.55700000000000016          2.7953936575810587E-005
  0.56000000000000005          2.7969215534597558E-005
  0.56299999999999994          2.7822870349968005E-005
  0.56600000000000006          2.7514198216514662E-005
  0.56899999999999995          2.7043903695844802E-005
  0.57200000000000006          2.6414157947576338E-005
  0.57499999999999996          2.5628614802326601E-005
  0.57800000000000007          2.4692314766147917E-005
  0.58099999999999996          2.3611680692060848E-005
  0.58400000000000007          2.2394446671062485E-005
  0.58699999999999997          2.1049565771167384E-005
  0.59000000000000008          1.9587211419642126E-005
  0.59299999999999997          1.8018511578256149E-005
  0.59600000000000009          1.6355602220669578E-005
  0.59899999999999998          1.4611347980708355E-005
  0.60200000000000009          1.2799275006843629E-005
  0.60500000000000020          1.0933397024908457E-005
  0.60800000000000010          9.0280820169661647E-006
  0.61100000000000021          7.0978343517992372E-006
  0.61400000000000010          5.1572359871607750E-006
  0.61700000000000021          3.2207155211859002E-006
  0.62000000000000011          1.3025225902101351E-006
  0.62300000000000022         -5.8354740781860072E-007
  0.62600000000000011         -2.4242702259082342E-006
  0.62900000000000000         -4.2070905520863452E-006
  0.63200000000000012         -5.9202443633188340E-006
  0.63500000000000001         -7.5528650908380937E-006
  0.63800000000000012         -9.0950436840460335E-006
  0.64100000000000001         -1.0538061774650955E-005
  0.64400000000000013         -1.1874138116278792E-005
  0.64700000000000002         -1.3096843970652506E-005
  0.65000000000000013         -1.4200868256901356E-005
  0.65300000000000002         -1.5182215942338417E-005
  0.65600000000000014         -1.6038043440442288E-005
  0.65900000000000003         -1.6766739763163204E-005
  0.66200000000000014         -1.7367849144968599E-005
  0.66500000000000004         -1.7842183928800744E-005
  0.66800000000000015         -1.8191508055685412E-005
  0.67100000000000004         -1.8418689273235004E-005
  0.67400000000000015         -1.8527525501683994E-005
  0.67700000000000005         -1.8522726386220552E-005
  0.68000000000000016         -1.8409730238666051E-005
  0.68300000000000005         -1.8194671073545771E-005
  0.68600000000000017         -1.7884348022202271E-005
  0.68900000000000006         -1.7485991537457344E-005
  0.69200000000000017         -1.7007230945267608E-005
  0.69500000000000006         -1.6456012101276090E-005
  0.69800000000000018         -1.5840515392707073E-005
  0.70100000000000007         -1.5168960825561252E-005
  0.70400000000000018         -1.4449594644919090E-005
  0.70700000000000007         -1.3690557232037510E-005
  0.71000000000000019         -1.2899857033520794E-005
  0.71300000000000008         -1.2085233637333659E-005
  0.71600000000000019         -1.1254175880970886E-005
  0.71900000000000008         -1.0413850433650759E-005
  0.72200000000000020         -9.5710220817707571E-006
  0.72500000000000009         -8.7319777363851494E-006
  0.72800000000000020         -7.9025224638404845E-006
  0.73100000000000009         -7.0879532291819556E-006
  0.73400000000000021         -6.2930277310228433E-006
  0.73700000000000010         -5.5219669564044343E-006
  0.74000000000000021         -4.7785128561342371E-006
  0.74300000000000010         -4.0658891737402127E-006
  0.74600000000000022         -3.3867714245357924E-006
  0.74900000000000011         -2.7433052251522231E-006
  0.75200000000000022         -2.1371549680576763E-006
  0.75500000000000012         -1.5695114085636901E-006
  0.75800000000000001         -1.0411122133188687E-006
  0.76100000000000012         -5.5231212694103405E-007
  0.76400000000000001         -1.0312358140170956E-007
  0.76700000000000013          3.0679763902737418E-007
  0.77000000000000002          6.7815027919168491E-007
  0.77300000000000013          1.0118852891849390E-006
  0.77600000000000002          1.3091746002642083E-006
  0.77900000000000014          1.5714167044342248E-006
  0.78200000000000003          1.8001783891918504E-006
  0.78500000000000014          1.9971154621201960E-006
  0.78800000000000003          2.1639998042051506E-006
  0.79100000000000015          2.3027214578055133E-006
  0.79400000000000004          2.4152321444487927E-006
  0.79700000000000015          2.5034611535666678E-006
  0.80000000000000004          2.5693564435760175E-006
  0.80300000000000016          2.6148594670675761E-006
  0.80600000000000005          2.6418542680967610E-006
  0.80900000000000016          2.6521484629181789E-006
  0.81200000000000006          2.6475329632144004E-006
  0.81500000000000017          2.6297508078724407E-006
  0.81800000000000006          2.6004075029329636E-006
  0.82100000000000017          2.5610080683284715E-006
  0.82400000000000007          2.5129984163197165E-006
  0.82700000000000018          2.4577219908000977E-006
  0.83000000000000007          2.3963847571125141E-006
  0.83300000000000018          2.3301230909610508E-006
  0.83600000000000008          2.2600121531004847E-006
  0.83900000000000019          2.1869914584854944E-006
  0.84200000000000008          2.1118600124104690E-006
  0.84500000000000020          2.0353628567728354E-006
  0.84800000000000009          1.9581860496152291E-006
  0.85100000000000020          1.8808957948277027E-006
  0.85400000000000009          1.8039808431052227E-006
  0.85700000000000021          1.7279082148105931E-006
  0.86000000000000010          1.6530545088318372E-006
  0.86300000000000021          1.5796806016277987E-006
  0.86600000000000010          1.5080192063304057E-006
  0.86900000000000022          1.4383074108083820E-006
  0.87200000000000011          1.3707091025186241E-006
  0.87500000000000022          1.3053178442902218E-006
  0.87800000000000011          1.2422289373999615E-006
  0.88100000000000001          1.1815101925339706E-006
  0.88400000000000012          1.1231511142845984E-006
  0.88700000000000001          1.0671327566671203E-006
  0.89000000000000012          1.0134865630748690E-006
  0.89300000000000002          9.6221514987249780E-007
  0.89600000000000013          9.1324984897009961E-007
  0.89900000000000002          8.6652649646066444E-007
  0.90200000000000014          8.2199903155090102E-007
  0.90500000000000003          7.7957922819530478E-007
  0.90800000000000014          7.3917484222180273E-007
  0.91100000000000003          7.0075999608678411E-007
  0.91400000000000015          6.6431199441598617E-007
  0.91700000000000004          6.2973761767849347E-007
  0.92000000000000015          5.9693549698103437E-007
  0.92300000000000004          5.6584646456323259E-007
  0.92600000000000016          5.3639740502587884E-007
  0.92900000000000005          5.0850156047017891E-007
  0.93200000000000016          4.8212877690029183E-007
  0.93500000000000005          4.5727150638698768E-007
  0.93800000000000017          4.3385775183732938E-007
  0.94100000000000006          4.1178942770898881E-007
  0.94400000000000017          3.9101543713616937E-007
  0.94700000000000006          3.7149020959182575E-007
  0.95000000000000018          3.5314165588372553E-007
  0.95300000000000007          3.3593205955263073E-007
  0.95600000000000018          3.1985912984243649E-007
  0.95900000000000007          3.0487174770871844E-007
  0.96200000000000019          2.9087841069545351E-007
  0.96500000000000008          2.7782710901732409E-007
  0.96800000000000019          2.6568725582158351E-007
  0.97100000000000009          2.5439569356440335E-007
  0.97400000000000020          2.4389847152368449E-007
  0.97700000000000009          2.3418246831104781E-007
  0.98000000000000020          2.2520719819055540E-007
  0.98300000000000010          2.1688413726822203E-007
  0.98600000000000021          2.0915278057263915E-007
  0.98900000000000010          2.0199074216763382E-007
  0.99200000000000021          1.9535066012750297E-007
  0.99500000000000011          1.8917214627782193E-007
  0.99800000000000022          1.8343200349032764E-007
   1.0010000000000001          1.7810104428750873E-007
   1.0040000000000002          1.7310128915996402E-007
   1.0070000000000001          1.6836594770426833E-007
   1.0100000000000000          1.6388086032674095E-007
   1.0130000000000001          1.5962509731070255E-007
   1.0160000000000000          1.5554670009589306E-007
   1.0190000000000001          1.5161712914734601E-007
   1.0220000000000000          1.4782499209351229E-007
   1.0250000000000001          1.4411845319597192E-007
   1.0280000000000000          1.4043916279795274E-007
   1.0310000000000001          1.3678549934992665E-007
   1.0340000000000000          1.3316985799988754E-007
   1.0370000000000001          1.2955918545445992E-007
   1.0400000000000000          1.2592043101702328E-007
   1.0430000000000001          1.2225688327907931E-007
   1.0460000000000000          1.1855462253044901E-007
   1.0490000000000002          1.1477487766693280E-007
   1.0520000000000000          1.1092691238514855E-007
   1.0550000000000002          1.0705363579729239E-007
   1.0580000000000001          1.0314820999954259E-007
   1.0610000000000002          9.9175835411791537E-008
   1.0640000000000001          9.5150392582813004E-008
   1.0670000000000002          9.1098319683384983E-008
   1.0700000000000001          8.7005562274896739E-008
   1.0730000000000002          8.2878755240989988E-008
   1.0760000000000001          7.8774975537670023E-008
   1.0790000000000002          7.4713504021215347E-008
   1.0820000000000001          7.0660902296486455E-008
   1.0850000000000002          6.6631404430355556E-008
   1.0880000000000001          6.2684143949583329E-008
   1.0910000000000002          5.8828493720483741E-008
   1.0940000000000001          5.5055250334942800E-008
   1.0970000000000002          5.1413319496147899E-008
