 -0.39999999999999997          0.0000000000000000     
 -0.39699999999999996          0.0000000000000000     
 -0.39399999999999996          0.0000000000000000     
 -0.39099999999999996          0.0000000000000000     
 -0.38799999999999996          0.0000000000000000     
 -0.38499999999999995          0.0000000000000000     
 -0.38199999999999995          0.0000000000000000     
 -0.37899999999999995          0.0000000000000000     
 -0.37599999999999995          0.0000000000000000     
 -0.37299999999999994          0.0000000000000000     
 -0.37000000000000000          0.0000000000000000     
 -0.36699999999999999          0.0000000000000000     
 -0.36399999999999999          0.0000000000000000     
 -0.36099999999999999          0.0000000000000000     
 -0.35799999999999998          0.0000000000000000     
 -0.35499999999999998          0.0000000000000000     
 -0.35199999999999998          0.0000000000000000     
 -0.34899999999999998          0.0000000000000000     
 -0.34599999999999997          0.0000000000000000     
 -0.34299999999999997          0.0000000000000000     
 -0.33999999999999997          0.0000000000000000     
 -0.33699999999999997          0.0000000000000000     
 -0.33399999999999996          0.0000000000000000     
 -0.33099999999999996          0.0000000000000000     
 -0.32799999999999996          0.0000000000000000     
 -0.32499999999999996          0.0000000000000000     
 -0.32199999999999995          0.0000000000000000     
 -0.31899999999999995          0.0000000000000000     
 -0.31599999999999995          0.0000000000000000     
 -0.31299999999999994          0.0000000000000000     
 -0.30999999999999994          0.0000000000000000     
 -0.30699999999999994          0.0000000000000000     
 -0.30399999999999994          0.0000000000000000     
 -0.30099999999999993          0.0000000000000000     
 -0.29799999999999993          0.0000000000000000     
 -0.29499999999999998          0.0000000000000000     
 -0.29199999999999998          0.0000000000000000     
 -0.28899999999999998          0.0000000000000000     
 -0.28599999999999998          0.0000000000000000     
 -0.28299999999999997          0.0000000000000000     
 -0.27999999999999997          0.0000000000000000     
 -0.27699999999999997          0.0000000000000000     
 -0.27399999999999997          0.0000000000000000     
 -0.27099999999999996          0.0000000000000000     
 -0.26799999999999996          0.0000000000000000     
 -0.26499999999999996          0.0000000000000000     
 -0.26199999999999996          0.0000000000000000     
 -0.25899999999999995          0.0000000000000000     
 -0.25599999999999995          0.0000000000000000     
 -0.25300000000000000          0.0000000000000000     
 -0.24999999999999997          0.0000000000000000     
 -0.24699999999999997          0.0000000000000000     
 -0.24399999999999997          0.0000000000000000     
 -0.24099999999999996          0.0000000000000000     
 -0.23799999999999996          0.0000000000000000     
 -0.23499999999999996          0.0000000000000000     
 -0.23199999999999996          0.0000000000000000     
 -0.22899999999999995          0.0000000000000000     
 -0.22599999999999995          0.0000000000000000     
 -0.22299999999999998          0.0000000000000000     
 -0.21999999999999997          0.0000000000000000     
 -0.21699999999999997          0.0000000000000000     
 -0.21399999999999997          0.0000000000000000     
 -0.21099999999999997          0.0000000000000000     
 -0.20799999999999996          0.0000000000000000     
 -0.20499999999999996          0.0000000000000000     
 -0.20199999999999996          0.0000000000000000     
 -0.19899999999999995          0.0000000000000000     
 -0.19599999999999995          0.0000000000000000     
 -0.19299999999999995          0.0000000000000000     
 -0.18999999999999997          0.0000000000000000     
 -0.18699999999999997          0.0000000000000000     
 -0.18399999999999997          0.0000000000000000     
 -0.18099999999999997          0.0000000000000000     
 -0.17799999999999996          0.0000000000000000     
 -0.17499999999999996          0.0000000000000000     
 -0.17199999999999996          0.0000000000000000     
 -0.16899999999999996          0.0000000000000000     
 -0.16599999999999995          0.0000000000000000     
 -0.16299999999999995          0.0000000000000000     
 -0.15999999999999998          0.0000000000000000     
 -0.15699999999999997          0.0000000000000000     
 -0.15399999999999997          0.0000000000000000     
 -0.15099999999999997          0.0000000000000000     
 -0.14799999999999996          0.0000000000000000     
 -0.14499999999999996          0.0000000000000000     
 -0.14199999999999996          0.0000000000000000     
 -0.13899999999999996          0.0000000000000000     
 -0.13599999999999995          0.0000000000000000     
 -0.13299999999999995          0.0000000000000000     
 -0.12999999999999995          0.0000000000000000     
 -0.12699999999999995          0.0000000000000000     
 -0.12399999999999994          0.0000000000000000     
 -0.12099999999999994          0.0000000000000000     
 -0.11799999999999994          0.0000000000000000     
 -0.11499999999999994          0.0000000000000000     
 -0.11199999999999993          0.0000000000000000     
 -0.10899999999999999          0.0000000000000000     
 -0.10599999999999998          0.0000000000000000     
 -0.10299999999999998          0.0000000000000000     
  -9.9999999999999978E-002     0.0000000000000000     
  -9.6999999999999975E-002     0.0000000000000000     
  -9.3999999999999972E-002     0.0000000000000000     
  -9.0999999999999970E-002     0.0000000000000000     
  -8.7999999999999967E-002     0.0000000000000000     
  -8.4999999999999964E-002     0.0000000000000000     
  -8.1999999999999962E-002     0.0000000000000000     
  -7.8999999999999959E-002     0.0000000000000000     
  -7.5999999999999956E-002     0.0000000000000000     
  -7.2999999999999954E-002     0.0000000000000000     
  -6.9999999999999951E-002     0.0000000000000000     
  -6.6999999999999948E-002     0.0000000000000000     
  -6.3999999999999946E-002     0.0000000000000000     
  -6.0999999999999943E-002     0.0000000000000000     
  -5.7999999999999940E-002     0.0000000000000000     
  -5.4999999999999938E-002     0.0000000000000000     
  -5.1999999999999935E-002     0.0000000000000000     
  -4.8999999999999932E-002     0.0000000000000000     
  -4.5999999999999985E-002     0.0000000000000000     
  -4.2999999999999983E-002     0.0000000000000000     
  -3.9999999999999980E-002     0.0000000000000000     
  -3.6999999999999977E-002     0.0000000000000000     
  -3.3999999999999975E-002     0.0000000000000000     
  -3.0999999999999972E-002     0.0000000000000000     
  -2.7999999999999969E-002     0.0000000000000000     
  -2.4999999999999967E-002     0.0000000000000000     
  -2.1999999999999964E-002     0.0000000000000000     
  -1.8999999999999961E-002     0.0000000000000000     
  -1.5999999999999959E-002     0.0000000000000000     
  -1.2999999999999956E-002     0.0000000000000000     
  -9.9999999999999534E-003     0.0000000000000000     
  -6.9999999999999507E-003     0.0000000000000000     
  -3.9999999999999480E-003     0.0000000000000000     
  -9.9999999999994538E-004     0.0000000000000000     
   2.0000000000000573E-003     0.0000000000000000     
   5.0000000000000600E-003     0.0000000000000000     
   8.0000000000000626E-003     0.0000000000000000     
   1.1000000000000065E-002     0.0000000000000000     
   1.4000000000000068E-002     0.0000000000000000     
   1.7000000000000015E-002    -5.5776788463506556E-042
   2.0000000000000018E-002    -8.8941255829964280E-042
   2.3000000000000020E-002     0.0000000000000000     
   2.6000000000000023E-002     1.9147139235789688E-041
   2.9000000000000026E-002    -1.3656655696531981E-041
   3.2000000000000028E-002    -6.5421838123309446E-040
   3.5000000000000031E-002    -9.4798920675856940E-040
   3.8000000000000034E-002     1.8378282659863956E-040
   4.1000000000000036E-002     2.3500081492112347E-039
   4.4000000000000039E-002     3.9855542704131269E-039
   4.7000000000000042E-002    -4.0747206464206870E-040
   5.0000000000000044E-002    -1.0038994905927927E-038
   5.3000000000000047E-002    -1.6825395157716480E-038
   5.6000000000000050E-002    -5.4152483426833404E-039
   5.9000000000000052E-002     3.3802951361600659E-038
   6.2000000000000055E-002     6.7828560696092047E-038
   6.5000000000000058E-002     5.4708758275006973E-038
   6.8000000000000060E-002    -6.9472914473706353E-038
   7.1000000000000063E-002    -2.5106544819427743E-037
   7.4000000000000066E-002    -2.9118162744930229E-037
   7.7000000000000068E-002     6.3918081619333985E-038
   8.0000000000000016E-002     7.8563865999307403E-037
   8.3000000000000018E-002     1.2717926020952425E-036
   8.6000000000000021E-002     5.0575812265699499E-037
   8.9000000000000024E-002    -1.9732673537390017E-036
   9.2000000000000026E-002    -4.7280265457136033E-036
   9.5000000000000029E-002    -4.1714805113877103E-036
   9.8000000000000032E-002     2.9565348620055028E-036
  0.10100000000000003          1.4662125740527477E-035
  0.10400000000000004          2.0289684680499939E-035
  0.10700000000000004          4.9943044263462121E-036
  0.11000000000000004         -3.5086298481547859E-035
  0.11300000000000004         -7.5271072045892503E-035
  0.11600000000000005         -6.2849205312647256E-035
  0.11900000000000005          4.5427855041949138E-035
  0.12200000000000005          2.1747772750219868E-034
  0.12500000000000006          3.0529382185532232E-034
  0.12800000000000006          1.0697689954077620E-034
  0.13100000000000006         -4.3974891706743153E-034
  0.13400000000000006         -1.0359240466166722E-033
  0.13700000000000007         -1.0120013170211229E-033
  0.14000000000000007          2.4719280606574506E-034
  0.14300000000000007          2.5202433118245711E-033
  0.14600000000000007          4.1789910998368123E-033
  0.14900000000000008          2.6927556817251524E-033
  0.15200000000000008         -3.3541490321824965E-033
  0.15500000000000008         -1.1598518051886255E-032
  0.15800000000000008         -1.4966118351627083E-032
  0.16100000000000009         -5.0767924704274789E-033
  0.16400000000000009          1.9822700188914585E-032
  0.16700000000000009          4.6916750063671220E-032
  0.17000000000000010          4.9313641009689874E-032
  0.17300000000000010          1.7827085408107501E-033
  0.17600000000000010         -9.1506724828830443E-032
  0.17899999999999999         -1.7548066611808440E-031
  0.18200000000000000         -1.5588796517393261E-031
  0.18500000000000000          3.9819002650202836E-032
  0.18800000000000000          3.7198077284579080E-031
  0.19100000000000000          6.3236268093516258E-031
  0.19400000000000001          5.0337070156619430E-031
  0.19700000000000001         -2.3082846242143056E-031
  0.20000000000000001         -1.3972500777589481E-030
  0.20300000000000001         -2.2737842904859134E-030
  0.20600000000000002         -1.7973277404455710E-030
  0.20900000000000002          7.6143963221244093E-031
  0.21200000000000002          4.8876313854236972E-030
  0.21500000000000002          8.2725594839604329E-030
  0.21800000000000003          7.3492133078466076E-030
  0.22100000000000003         -7.3036949084530973E-031
  0.22400000000000003         -1.5212747733551254E-029
  0.22700000000000004         -2.9562416370160910E-029
  0.23000000000000004         -3.2148451741071950E-029
  0.23300000000000004         -1.1290632619685600E-029
  0.23600000000000004          3.6015783051325635E-029
  0.23900000000000005          9.5434279509961249E-029
  0.24200000000000005          1.3280512408671078E-028
  0.24500000000000005          1.0371018466535954E-028
  0.24800000000000005         -2.3332004105426374E-029
  0.25100000000000006         -2.3634924419644870E-028
  0.25400000000000006         -4.5701990273569739E-028
  0.25700000000000006         -5.4486201947394169E-028
  0.26000000000000006         -3.4328946438439593E-028
  0.26300000000000007          2.3395084650209734E-028
  0.26600000000000007          1.1023702434809949E-027
  0.26900000000000007          1.9427248142808886E-027
  0.27200000000000008          2.2328103342639535E-027
  0.27500000000000008          1.4152363166217080E-027
  0.27800000000000008         -8.1063177868810714E-028
  0.28100000000000008         -4.1587101422634013E-027
  0.28400000000000009         -7.5429724628401048E-027
  0.28700000000000009         -9.1600843499556038E-027
  0.29000000000000009         -6.9926541795939051E-027
  0.29300000000000009          2.8737844816982113E-028
  0.29600000000000010          1.2243849028353532E-026
  0.29900000000000010          2.5860061492590233E-026
  0.30200000000000010          3.5507242588298320E-026
  0.30499999999999999          3.4124117824644785E-026
  0.30800000000000000          1.5692258156998231E-026
  0.31100000000000000         -2.1445063993624219E-026
  0.31400000000000000         -7.1460343004463460E-026
  0.31700000000000000         -1.1956727866086039E-025
  0.32000000000000001         -1.4363176273056930E-025
  0.32300000000000001         -1.1969223091599688E-025
  0.32600000000000001         -3.0997041108585813E-026
  0.32900000000000001          1.2142905722962117E-025
  0.33200000000000002          3.1017815624193713E-025
  0.33500000000000002          4.7910122204627133E-025
  0.33800000000000002          5.5097313301833579E-025
  0.34100000000000003          4.4682387886075550E-025
  0.34400000000000003          1.1493924640909786E-025
  0.34700000000000003         -4.3686933271024893E-025
  0.35000000000000003         -1.1160108980491561E-024
  0.35300000000000004         -1.7389408798847803E-024
  0.35600000000000004         -2.0544088136838981E-024
  0.35900000000000004         -1.8005145184219127E-024
  0.36200000000000004         -7.9017926169562394E-025
  0.36500000000000005          9.9202907742562012E-025
  0.36800000000000005          3.3092687409052226E-024
  0.37100000000000005          5.6409056059024193E-024
  0.37400000000000005          7.2298233275379501E-024
  0.37700000000000006          7.2246018282916688E-024
  0.38000000000000006          4.9087071304173739E-024
  0.38300000000000006         -2.0639083824139961E-026
  0.38600000000000007         -7.1902781233709193E-024
  0.38900000000000007         -1.5390585507706526E-023
  0.39200000000000007         -2.2601926071655226E-023
  0.39500000000000007         -2.6268702540441068E-023
  0.39800000000000008         -2.3831190651632668E-023
  0.40100000000000008         -1.3456083790007223E-023
  0.40400000000000008          5.1697039534718243E-024
  0.40700000000000008          3.0179578183598299E-023
  0.41000000000000009          5.7228200232001987E-023
  0.41300000000000009          7.9756351083333859E-023
  0.41600000000000009          8.9937792132884041E-023
  0.41900000000000009          8.0285715024956059E-023
  0.42200000000000010          4.5718228788570633E-023
  0.42500000000000010         -1.4295580538700283E-023
  0.42800000000000010         -9.4025044392870502E-023
  0.43100000000000011         -1.8076374922024185E-022
  0.43400000000000000         -2.5559719720755652E-022
  0.43700000000000000         -2.9591888310498123E-022
  0.44000000000000000         -2.7962577069233595E-022
  0.44300000000000000         -1.9050523023958865E-022
  0.44600000000000001         -2.3913777993825816E-023
  0.44900000000000001          2.0846424557455603E-022
  0.45200000000000001          4.7612349061686864E-022
  0.45500000000000002          7.3069433127012480E-022
  0.45800000000000002          9.1111964437272722E-022
  0.46100000000000002          9.5307868580509445E-022
  0.46400000000000002          8.0181947368069514E-022
  0.46700000000000003          4.2660408968796550E-022
  0.47000000000000003         -1.6579639485786976E-022
  0.47300000000000003         -9.2156481221900096E-022
  0.47600000000000003         -1.7371972571585872E-021
  0.47900000000000004         -2.4660751120169682E-021
  0.48200000000000004         -2.9352488537515940E-021
  0.48500000000000004         -2.9717854903241914E-021
  0.48800000000000004         -2.4360196853879800E-021
  0.49100000000000005         -1.2571756381703760E-021
  0.49400000000000005          5.3463306222555712E-022
  0.49700000000000005          2.7866974329768731E-021
  0.50000000000000000          5.2186034439145508E-021
  0.50300000000000011          7.4385799802854968E-021
  0.50600000000000001          8.9833748744533209E-021
  0.50900000000000012          9.3804053196618470E-021
  0.51200000000000001          8.2267556939722390E-021
  0.51500000000000012          5.2758689444412211E-021
  0.51800000000000002          5.1945408177287542E-022
  0.52100000000000013         -5.7496552585342941E-021
  0.52400000000000002         -1.2907891913969849E-020
  0.52700000000000014         -2.0017026664357034E-020
  0.53000000000000003         -2.5893466721233905E-020
  0.53300000000000014         -2.9232738561019001E-020
  0.53600000000000003         -2.8782431606321404E-020
  0.53900000000000015         -2.3549489252999848E-020
  0.54200000000000004         -1.3018695884095915E-020
  0.54500000000000015          2.6465838834460406E-021
  0.54800000000000004          2.2454922245274624E-020
  0.55100000000000016          4.4521667606903206E-020
  0.55400000000000005          6.6117330608972967E-020
  0.55700000000000016          8.3850001724562573E-020
  0.56000000000000005          9.3987363246124411E-020
  0.56299999999999994          9.2907859144611900E-020
  0.56600000000000006          7.7648160933657223E-020
  0.56899999999999995          4.6497519612108199E-020
  0.57200000000000006         -4.3555894991149571E-022
  0.57499999999999996         -6.0764385698613431E-020
  0.57800000000000007         -1.2956403000309838E-019
  0.58099999999999996         -1.9939463415611863E-019
  0.58400000000000007         -2.6067518021436771E-019
  0.58699999999999997         -3.0244016562949980E-019
  0.59000000000000008         -3.1347930863568791E-019
  0.59299999999999997         -2.8379740645729660E-019
  0.59600000000000009         -2.0628007191731659E-019
  0.59899999999999998         -7.8396532672012841E-020
  0.60200000000000009          9.6273851982507080E-020
  0.60500000000000020          3.0693698015714568E-019
  0.60800000000000010          5.3515073510887686E-019
  0.61100000000000021          7.5527749026026888E-019
  0.61400000000000010          9.3597797050673506E-019
  0.61700000000000021          1.0428199878550051E-018
  0.62000000000000011          1.0419195751981861E-018
  0.62300000000000022          9.0441463790951474E-019
  0.62600000000000011          6.1140522770248022E-019
  0.62900000000000000          1.5885552942059648E-019
  0.63200000000000012         -4.3815848459891731E-019
  0.63500000000000001         -1.1425445871991662E-018
  0.63800000000000012         -1.8942723456371224E-018
  0.64100000000000001         -2.6120431287824020E-018
  0.64400000000000013         -3.1979267280758808E-018
  0.64700000000000002         -3.5451383573536785E-018
  0.65000000000000013         -3.5486955009621762E-018
  0.65300000000000002         -3.1184273328576956E-018
  0.65600000000000014         -2.1933371535211434E-018
  0.65900000000000003         -7.5593353977946784E-019
  0.66200000000000014          1.1551007405488930E-018
  0.66500000000000004          3.4357334659693247E-018
  0.66800000000000015          5.9127553457161218E-018
  0.67100000000000004          8.3469558711684557E-018
  0.67400000000000015          1.0444500007666573E-017
  0.67700000000000005          1.1877150090381754E-017
  0.68000000000000016          1.2311042622192903E-017
  0.68300000000000005          1.1442776062404007E-017
  0.68600000000000017          9.0405772087831519E-018
  0.68900000000000006          4.9871672013071532E-018
  0.69200000000000017         -6.8013002249360213E-019
  0.69500000000000006         -7.7365744481706154E-018
  0.69800000000000018         -1.5749996426871682E-017
  0.70100000000000007         -2.4078427616032458E-017
  0.70400000000000018         -3.1889714285607947E-017
  0.70700000000000007         -3.8205659588251198E-017
  0.71000000000000019         -4.1971778064224456E-017
  0.71300000000000008         -4.2151224961949399E-017
  0.71600000000000019         -3.7837802119148084E-017
  0.71900000000000008         -2.8381459986714622E-017
  0.72200000000000020         -1.3515738299993858E-017
  0.72500000000000009          6.5253758759616253E-018
  0.72800000000000020          3.0915769434881645E-017
  0.73100000000000009          5.8184408043128008E-017
  0.73400000000000021          8.6216689382683250E-017
  0.73700000000000010          1.1232028363171641E-016
  0.74000000000000021          1.3336325052830446E-016
  0.74300000000000010          1.4598706864816382E-016
  0.74600000000000022          1.4688939916320033E-016
  0.74900000000000011          1.3316366118671998E-016
  0.75200000000000022          1.0267459410611051E-016
  0.75500000000000012          5.4442773161501614E-017
  0.75800000000000001         -1.0999623747155651E-017
  0.76100000000000012         -9.1321510314864904E-017
  0.76400000000000001         -1.8221050913036424E-016
  0.76700000000000013         -2.7734351278022365E-016
  0.77000000000000002         -3.6854041145868358E-016
  0.77300000000000013         -4.4612346621225627E-016
  0.77600000000000002         -4.9949579412261598E-016
  0.77900000000000014         -5.1793143411537469E-016
  0.78200000000000003         -4.9154315350311101E-016
  0.78500000000000014         -4.1238333272387655E-016
  0.78800000000000003         -2.7560356232581944E-016
  0.79100000000000015         -8.0574725410398361E-017
  0.79400000000000004          1.6813181974525694E-016
  0.79700000000000015          4.6002846036195057E-016
  0.80000000000000004          7.7836481697108189E-016
  0.80300000000000016          1.1002792397006063E-015
  0.80600000000000005          1.3975132384823723E-015
  0.80900000000000016          1.6377484095261107E-015
  0.81200000000000006          1.7865886934069348E-015
  0.81500000000000017          1.8101318637783776E-015
  0.81800000000000006          1.6780285128449879E-015
  0.82100000000000017          1.3668696874647540E-015
  0.82400000000000007          8.6368368877341713E-016
  0.82700000000000018          1.6924943673973929E-016
  0.83000000000000007         -6.9904453969726791E-016
  0.83300000000000018         -1.7052062626710990E-015
  0.83600000000000008         -2.7937612796728424E-015
  0.83900000000000019         -3.8903326232128622E-015
  0.84200000000000008         -4.9039091040029577E-015
  0.84500000000000020         -5.7309537367075753E-015
  0.84800000000000009         -6.2613490139103843E-015
  0.85100000000000020         -6.3860801597441896E-015
  0.85400000000000009         -6.0063865130912493E-015
  0.85700000000000021         -5.0438582223142459E-015
  0.86000000000000010         -3.4510052241130838E-015
  0.86300000000000021         -1.2213130905626822E-015
  0.86600000000000010          1.6018483783714622E-015
  0.86900000000000022          4.9185869427555005E-015
  0.87200000000000011          8.5689210509885818E-015
  0.87500000000000022          1.2333260062710164E-014
  0.87800000000000011          1.5937651653409306E-014
  0.88100000000000001          1.9064128565637375E-014
  0.88400000000000012          2.1366563273707593E-014
  0.88700000000000001          2.2491606969695654E-014
  0.89000000000000012          2.2104467129374383E-014
  0.89300000000000002          1.9917824995407450E-014
  0.89600000000000013          1.5723020661989283E-014
  0.89900000000000002          9.4212485106780450E-015
  0.90200000000000014          1.0523192256912747E-015
  0.90500000000000003         -9.1812788530593227E-015
  0.90800000000000014         -2.0897666827285066E-014
  0.91100000000000003         -3.3529069281473940E-014
  0.91400000000000015         -4.6327335749431198E-014
  0.91700000000000004         -5.8383740962980135E-014
  0.92000000000000015         -6.8664145053892137E-014
  0.92300000000000004         -7.6058901178057312E-014
  0.92600000000000016         -7.9448416975609121E-014
  0.92900000000000005         -7.7780743423897345E-014
  0.93200000000000016         -7.0158269836037858E-014
  0.93500000000000005         -5.5930084676859562E-014
  0.93800000000000017         -3.4783842938498984E-014
  0.94100000000000006         -6.8306466808637882E-015
  0.94400000000000017          2.7324487851288426E-014
  0.94700000000000006          6.6531983541064761E-014
  0.95000000000000018          1.0907584343816832E-013
  0.95300000000000007          1.5268608004770791E-013
  0.95600000000000018          1.9459034440604064E-013
  0.95900000000000007          2.3160800857936809E-013
  0.96200000000000019          2.6028791641234584E-013
  0.96500000000000008          2.7708784259842918E-013
  0.96800000000000019          2.7859211475715288E-013
  0.97100000000000009          2.6175570678759736E-013
  0.97400000000000020          2.2416949903711321E-013
  0.97700000000000009          1.6433036768677976E-013
  0.98000000000000020          8.1896371700775536E-014
  0.98300000000000010         -2.2084985121966022E-014
  0.98600000000000021         -1.4500144862145829E-013
  0.98900000000000010         -2.8256157515876583E-013
  0.99200000000000021         -4.2877644880414532E-013
  0.99500000000000011         -5.7603050315752773E-013
  0.99800000000000022         -7.1527369871983183E-013
   1.0010000000000001         -8.3632678328390252E-013
   1.0040000000000002         -9.2830889390144259E-013
   1.0070000000000001         -9.8016937869380259E-013
   1.0100000000000000         -9.8131851777470948E-013
   1.0130000000000001         -9.2233796991350741E-013
   1.0160000000000000         -7.9572451862285062E-013
   1.0190000000000001         -5.9664495232414488E-013
   1.0220000000000000         -3.2365210889078854E-013
   1.0250000000000001          2.0688133646514615E-014
   1.0280000000000000          4.2928706705868596E-013
   1.0310000000000001          8.9022878335281331E-013
   1.0340000000000000          1.3866749398905647E-012
   1.0370000000000001          1.8970382102136158E-012
   1.0400000000000000          2.3954529439819560E-012
   1.0430000000000001          2.8525583362647544E-012
   1.0460000000000000          3.2365839938121500E-012
   1.0490000000000002          3.5147561302849107E-012
   1.0520000000000000          3.6549529105029170E-012
   1.0550000000000002          3.6275838206315299E-012
   1.0580000000000001          3.4076355257621238E-012
   1.0610000000000002          2.9767447006948232E-012
   1.0640000000000001          2.3252738579406181E-012
   1.0670000000000002          1.4542655791237307E-012
   1.0700000000000001          3.7704506370244018E-013
   1.0730000000000002         -8.7941519301120751E-013
   1.0760000000000001         -2.2737332652808077E-012
   1.0790000000000002         -3.7498744728671174E-012
   1.0820000000000001         -5.2376094452503265E-012
   1.0850000000000002         -6.6536552052513838E-012
   1.0880000000000001         -7.9036609751804748E-012
   1.0910000000000002         -8.8848889058040249E-012
   1.0940000000000001         -9.4896756149921343E-012
   1.0970000000000002         -9.6095683234628093E-012
