 -0.39999999999999997          0.0000000000000000     
 -0.39699999999999996          0.0000000000000000     
 -0.39399999999999996          0.0000000000000000     
 -0.39099999999999996          0.0000000000000000     
 -0.38799999999999996          0.0000000000000000     
 -0.38499999999999995          0.0000000000000000     
 -0.38199999999999995          0.0000000000000000     
 -0.37899999999999995          0.0000000000000000     
 -0.37599999999999995          0.0000000000000000     
 -0.37299999999999994          0.0000000000000000     
 -0.37000000000000000          0.0000000000000000     
 -0.36699999999999999          0.0000000000000000     
 -0.36399999999999999          0.0000000000000000     
 -0.36099999999999999          0.0000000000000000     
 -0.35799999999999998          0.0000000000000000     
 -0.35499999999999998          0.0000000000000000     
 -0.35199999999999998          0.0000000000000000     
 -0.34899999999999998          0.0000000000000000     
 -0.34599999999999997          0.0000000000000000     
 -0.34299999999999997          0.0000000000000000     
 -0.33999999999999997          0.0000000000000000     
 -0.33699999999999997          0.0000000000000000     
 -0.33399999999999996          0.0000000000000000     
 -0.33099999999999996          0.0000000000000000     
 -0.32799999999999996          0.0000000000000000     
 -0.32499999999999996          0.0000000000000000     
 -0.32199999999999995          0.0000000000000000     
 -0.31899999999999995          0.0000000000000000     
 -0.31599999999999995          0.0000000000000000     
 -0.31299999999999994          0.0000000000000000     
 -0.30999999999999994          0.0000000000000000     
 -0.30699999999999994          0.0000000000000000     
 -0.30399999999999994          0.0000000000000000     
 -0.30099999999999993          0.0000000000000000     
 -0.29799999999999993          0.0000000000000000     
 -0.29499999999999998          0.0000000000000000     
 -0.29199999999999998          0.0000000000000000     
 -0.28899999999999998          0.0000000000000000     
 -0.28599999999999998          0.0000000000000000     
 -0.28299999999999997          0.0000000000000000     
 -0.27999999999999997          0.0000000000000000     
 -0.27699999999999997          0.0000000000000000     
 -0.27399999999999997          0.0000000000000000     
 -0.27099999999999996          0.0000000000000000     
 -0.26799999999999996          0.0000000000000000     
 -0.26499999999999996          0.0000000000000000     
 -0.26199999999999996          0.0000000000000000     
 -0.25899999999999995          0.0000000000000000     
 -0.25599999999999995          0.0000000000000000     
 -0.25300000000000000          0.0000000000000000     
 -0.24999999999999997         -3.4352696206783338E-040
 -0.24699999999999997          1.1551815734114047E-038
 -0.24399999999999997         -2.0107684387504175E-040
 -0.24099999999999996         -6.2828221550371937E-038
 -0.23799999999999996          1.7935712808106231E-038
 -0.23499999999999996          2.9274788510910948E-037
 -0.23199999999999996         -2.8014250000051564E-037
 -0.22899999999999995         -1.1795170820480479E-036
 -0.22599999999999995          1.8500773231294511E-036
 -0.22299999999999998          4.2254015959127536E-036
 -0.21999999999999997         -9.3475935263440009E-036
 -0.21699999999999997         -1.3650233731625793E-035
 -0.21399999999999997          4.0104961343070360E-035
 -0.21099999999999997          4.0918399725871246E-035
 -0.20799999999999996         -1.5227812677278586E-034
 -0.20499999999999996         -1.1808480428008898E-034
 -0.20199999999999996          5.2135638286404415E-034
 -0.19899999999999995          3.4338704104618502E-034
 -0.19599999999999995         -1.6188935267247928E-033
 -0.19299999999999995         -1.0409630670988953E-033
 -0.18999999999999997          4.5337381997578391E-033
 -0.18699999999999997          3.2667665598108423E-033
 -0.18399999999999997         -1.1214423316811430E-032
 -0.18099999999999997         -1.0100618209247272E-032
 -0.17799999999999996          2.3273561809652062E-032
 -0.17499999999999996          2.8720719704666582E-032
 -0.17199999999999996         -3.4866194882575942E-032
 -0.16899999999999996         -6.8917608966796893E-032
 -0.16599999999999995          1.0520110306336945E-032
 -0.16299999999999995          1.1660776324397421E-031
 -0.15999999999999998          1.5497977065316078E-031
 -0.15699999999999997         -2.0207301440353505E-032
 -0.15399999999999997         -6.2983106049426504E-031
 -0.15099999999999997         -8.0442066385254717E-031
 -0.14799999999999996          1.2890924271107788E-030
 -0.14499999999999996          3.7342149081868321E-030
 -0.14199999999999996         -2.8995967933705400E-031
 -0.13899999999999996         -1.0107513676248908E-029
 -0.13599999999999995         -8.8387261463905790E-030
 -0.13299999999999995          1.5131791708768724E-029
 -0.12999999999999995          3.7403426684369206E-029
 -0.12699999999999995          9.1239676928348558E-030
 -0.12399999999999994         -7.9881813276376936E-029
 -0.12099999999999994         -1.3085247370867419E-028
 -0.11799999999999994          3.2976573775789823E-029
 -0.11499999999999994          3.9378062458912876E-028
 -0.11199999999999993          4.3020603474031679E-028
 -0.10899999999999999         -4.6932656290683549E-028
 -0.10599999999999998         -1.7023861347116529E-027
 -0.10299999999999998         -1.0371787647350713E-027
  -9.9999999999999978E-002     2.8330540363622317E-027
  -9.6999999999999975E-002     6.3659430303106349E-027
  -9.3999999999999972E-002     1.8150883042131783E-027
  -9.0999999999999970E-002    -1.3129318664399947E-026
  -8.7999999999999967E-002    -2.3086703527654658E-026
  -8.4999999999999964E-002    -4.9880556825758349E-028
  -8.1999999999999962E-002     5.6134095664233020E-026
  -7.8999999999999959E-002     8.1855276207650742E-026
  -7.5999999999999956E-002    -1.8264914439580738E-026
  -7.2999999999999954E-002    -2.2394051304214826E-025
  -6.9999999999999951E-002    -2.8399208285888080E-025
  -6.6999999999999948E-002     1.1502075070065593E-025
  -6.3999999999999946E-002     8.4648759488074204E-025
  -6.0999999999999943E-002     9.9736021695640534E-025
  -5.7999999999999940E-002    -4.9376115818837140E-025
  -5.4999999999999938E-002    -3.0966170474108633E-024
  -5.1999999999999935E-002    -3.5691492638656396E-024
  -4.8999999999999932E-002     1.7420058324369090E-024
  -4.5999999999999985E-002     1.0959185042689110E-023
  -4.2999999999999983E-002     1.2967800233559280E-023
  -3.9999999999999980E-002    -4.9474139014474893E-024
  -3.6999999999999977E-002    -3.7382578964858024E-023
  -3.3999999999999975E-002    -4.7611323035971559E-023
  -3.0999999999999972E-002     9.3222386711386915E-024
  -2.7999999999999969E-002     1.2212406524903733E-022
  -2.4999999999999967E-002     1.7401158887395418E-022
  -2.1999999999999964E-002     6.3573639030243711E-024
  -1.8999999999999961E-002    -3.7615151239644432E-022
  -1.5999999999999959E-002    -6.2187969091477786E-022
  -1.2999999999999956E-002    -1.8203715117132322E-022
  -9.9999999999999534E-003     1.0637878571141513E-021
  -6.9999999999999507E-003     2.1351894397510593E-021
  -3.9999999999999480E-003     1.1994790155154437E-021
  -9.9999999999994538E-004    -2.6249525627012208E-021
   2.0000000000000573E-003    -6.9059874163171961E-021
   5.0000000000000600E-003    -5.8481498061867644E-021
   8.0000000000000626E-003     4.9211977244294172E-021
   1.1000000000000065E-002     2.0538154380312720E-020
   1.4000000000000068E-002     2.4022920304721088E-020
   1.7000000000000015E-002    -2.5563877415079308E-021
   2.0000000000000018E-002    -5.4134769103925880E-020
   2.3000000000000020E-002    -8.5999021904764251E-020
   2.6000000000000023E-002    -3.4319396765325546E-020
   2.9000000000000026E-002     1.1724526586235562E-019
   3.2000000000000028E-002     2.6871748475275380E-019
   3.5000000000000031E-002     2.2106362212145957E-019
   3.8000000000000034E-002    -1.6138040929981890E-019
   4.1000000000000036E-002    -7.1619327339296748E-019
   4.4000000000000039E-002    -9.0712206866474949E-019
   4.7000000000000042E-002    -1.4730993528798753E-019
   5.0000000000000044E-002     1.5205167643773700E-018
   5.3000000000000047E-002     2.9041102383784859E-018
   5.6000000000000050E-002     2.0724098650953389E-018
   5.9000000000000052E-002    -1.9912425853138277E-018
   6.2000000000000055E-002    -7.3920016445674018E-018
   6.5000000000000058E-002    -9.0296084365171842E-018
   6.8000000000000060E-002    -1.7555833067425255E-018
   7.1000000000000063E-002     1.3811881968777090E-017
   7.4000000000000066E-002     2.7243225843321337E-017
   7.7000000000000068E-002     2.1927689260916828E-017
   8.0000000000000016E-002    -1.1654039734633929E-017
   8.3000000000000018E-002    -6.0077771182560307E-017
   8.6000000000000021E-002    -8.3632604057893227E-017
   8.9000000000000024E-002    -3.8277440468566727E-017
   9.2000000000000026E-002     8.1735633358828019E-017
   9.5000000000000029E-002     2.0993192348440492E-016
   9.8000000000000032E-002     2.2314154253414494E-016
  0.10100000000000003          2.4834230141732344E-017
  0.10400000000000004         -3.4100115748926622E-016
  0.10700000000000004         -6.3721788282506031E-016
  0.11000000000000004         -5.3296897809106246E-016
  0.11300000000000004          1.4329603772767059E-016
  0.11600000000000005          1.1408457117703062E-015
  0.11900000000000005          1.7529576322973229E-015
  0.12200000000000005          1.1803057407228705E-015
  0.12500000000000006         -8.0650685126830151E-016
  0.12800000000000006         -3.3272790805227009E-015
  0.13100000000000006         -4.5191094470924436E-015
  0.13400000000000006         -2.5812917296991110E-015
  0.13700000000000007          2.6694354897379833E-015
  0.14000000000000007          8.7773175264224559E-015
  0.14300000000000007          1.1268258852338903E-014
  0.14600000000000007          6.2004186681177914E-015
  0.14900000000000008         -6.4857994000596820E-015
  0.15200000000000008         -2.1070879976527552E-014
  0.15500000000000008         -2.7681315138005853E-014
  0.15800000000000008         -1.7663730769594853E-014
  0.16100000000000009          9.7543873695236763E-015
  0.16400000000000009          4.3779317030277593E-014
  0.16700000000000009          6.4907375923188264E-014
  0.17000000000000010          5.4465368101695311E-014
  0.17300000000000010          6.5289933004787784E-015
  0.17600000000000010         -6.4716149803819103E-014
  0.17899999999999999         -1.2771685873294166E-013
  0.18200000000000000         -1.4673160186364525E-013
  0.18500000000000000         -9.9574782900138757E-014
  0.18800000000000000          9.2333735422430950E-015
  0.19100000000000000          1.4709066045529683E-013
  0.19400000000000001          2.6462047475347802E-013
  0.19700000000000001          3.1390654716424195E-013
  0.20000000000000001          2.6501584402798518E-013
  0.20300000000000001          1.1461443060799608E-013
  0.20600000000000002         -1.1399603259738154E-013
  0.20900000000000002         -3.7580508270855578E-013
  0.21200000000000002         -6.1028198576030754E-013
  0.21500000000000002         -7.4857484005962859E-013
  0.21800000000000003         -7.2460522947836608E-013
  0.22100000000000003         -4.9214923861176592E-013
  0.22400000000000003         -4.5034600100895263E-014
  0.22700000000000004          5.6759776011191649E-013
  0.23000000000000004          1.2397461937923771E-012
  0.23300000000000004          1.8240588500386553E-012
  0.23600000000000004          2.1597139456481787E-012
  0.23900000000000005          2.1033811866056366E-012
  0.24200000000000005          1.5562989219448671E-012
  0.24500000000000005          4.8702445438242048E-013
  0.24800000000000005         -1.0465606141189390E-012
  0.25100000000000006         -2.8763039766280825E-012
  0.25400000000000006         -4.7142831565428554E-012
  0.25700000000000006         -6.1722499463685709E-012
  0.26000000000000006         -6.8225377398637248E-012
  0.26300000000000007         -6.2946442258614205E-012
  0.26600000000000007         -4.3798263105543579E-012
  0.26900000000000007         -1.1057840944480539E-012
  0.27200000000000008          3.2457360295025339E-012
  0.27500000000000008          8.1793634298749610E-012
  0.27800000000000008          1.3060168496851914E-011
  0.28100000000000008          1.7189817012001346E-011
  0.28400000000000009          1.9868003772821924E-011
  0.28700000000000009          2.0446923095664551E-011
  0.29000000000000009          1.8400187158078148E-011
  0.29300000000000009          1.3419213468050770E-011
  0.29600000000000010          5.5254536131776577E-012
  0.29900000000000010         -4.8363746357553753E-012
  0.30200000000000010         -1.6761299635869614E-011
  0.30499999999999999         -2.8921939729233788E-011
  0.30800000000000000         -3.9673467492023625E-011
  0.31100000000000000         -4.7201516898777927E-011
  0.31400000000000000         -4.9694252802514659E-011
  0.31700000000000000         -4.5533285808998478E-011
  0.32000000000000001         -3.3505504280838835E-011
  0.32300000000000001         -1.3027597325102280E-011
  0.32600000000000001          1.5645597000731373E-011
  0.32900000000000001          5.1271279755995035E-011
  0.33200000000000002          9.1563637029368806E-011
  0.33500000000000002          1.3323975068238368E-010
  0.33800000000000002          1.7214508743882661E-010
  0.34100000000000003          2.0342502093000646E-010
  0.34400000000000003          2.2171905234832848E-010
  0.34700000000000003          2.2136165568991860E-010
  0.35000000000000003          1.9659404797466984E-010
  0.35300000000000004          1.4177414680633734E-010
  0.35600000000000004          5.1557431542494344E-011
  0.35900000000000004         -7.8984875817401320E-011
  0.36200000000000004         -2.5434570283232042E-010
  0.36500000000000005         -4.7865534814409037E-010
  0.36800000000000005         -7.5585859035771678E-010
  0.37100000000000005         -1.0899828825571157E-009
  0.37400000000000005         -1.4855097047029359E-009
  0.37700000000000006         -1.9478534362269658E-009
  0.38000000000000006         -2.4839562954375615E-009
  0.38300000000000006         -3.1029939319831215E-009
  0.38600000000000007         -3.8170957613448287E-009
  0.38900000000000007         -4.6420703092306710E-009
  0.39200000000000007         -5.5981516389594966E-009
  0.39500000000000007         -6.7106489393925777E-009
  0.39800000000000008         -8.0106319786378422E-009
  0.40100000000000008         -9.5355924518660021E-009
  0.40400000000000008         -1.1330130722398969E-008
  0.40700000000000008         -1.3446570133741097E-008
  0.41000000000000009         -1.5945648721079293E-008
  0.41300000000000009         -1.8897097836924206E-008
  0.41600000000000009         -2.2380732744934462E-008
  0.41900000000000009         -2.6487054651343248E-008
  0.42200000000000010         -3.1318544519142931E-008
  0.42500000000000010         -3.6991068575945914E-008
  0.42800000000000010         -4.3634953540699698E-008
  0.43100000000000011         -5.1396981374536758E-008
  0.43400000000000000         -6.0441645733115422E-008
  0.43700000000000000         -7.0953842610172807E-008
  0.44000000000000000         -8.3140545353544148E-008
  0.44300000000000000         -9.7232917120241989E-008
  0.44600000000000001         -1.1348971020954544E-007
  0.44900000000000001         -1.3219942000697571E-007
  0.45200000000000001         -1.5368297894071877E-007
  0.45500000000000002         -1.7829605501300297E-007
  0.45800000000000002         -2.0643392645129693E-007
  0.46100000000000002         -2.3853201611143143E-007
  0.46400000000000002         -2.7506971715964826E-007
  0.46700000000000003         -3.1657249289945176E-007
  0.47000000000000003         -3.6361588366266714E-007
  0.47300000000000003         -4.1682267931589122E-007
  0.47600000000000003         -4.7687196310818991E-007
  0.47900000000000004         -5.4449302845361923E-007
  0.48200000000000004         -6.2047254695351014E-007
  0.48500000000000004         -7.0565108329078883E-007
  0.48800000000000004         -8.0092417563288021E-007
  0.49100000000000005         -9.0724172894767924E-007
  0.49400000000000005         -1.0256055333090135E-006
  0.49700000000000005         -1.1570708454616892E-006
  0.50000000000000000         -1.3027323283945194E-006
  0.50300000000000011         -1.4637326266649355E-006
  0.50600000000000001         -1.6412443431313956E-006
  0.50900000000000012         -1.8364749300023277E-006
  0.51200000000000001         -2.0506408333311328E-006
  0.51500000000000012         -2.2849877267012258E-006
  0.51800000000000002         -2.5407381123662743E-006
  0.52100000000000013         -2.8190993567988156E-006
  0.52400000000000002         -3.1212462577898894E-006
  0.52700000000000014         -3.4483133041665581E-006
  0.53000000000000003         -3.8013474179598038E-006
  0.53300000000000014         -4.1813320815808239E-006
  0.53600000000000003         -4.5890763236730503E-006
  0.53900000000000015         -5.0253107674305458E-006
  0.54200000000000004         -5.4905584340137399E-006
  0.54500000000000015         -5.9851542760482720E-006
  0.54800000000000004         -6.5092011945874446E-006
  0.55100000000000016         -7.0625755463614933E-006
  0.55400000000000005         -7.6447859383803725E-006
  0.55700000000000016         -8.2550583040709910E-006
  0.56000000000000005         -8.8923173105574568E-006
  0.56299999999999994         -9.5549943094376607E-006
  0.56600000000000006         -1.0241152926668649E-005
  0.56899999999999995         -1.0948402504417431E-005
  0.57200000000000006         -1.1673985239053278E-005
  0.57499999999999996         -1.2414403132714748E-005
  0.57800000000000007         -1.3165789528829722E-005
  0.58099999999999996         -1.3923768705597205E-005
  0.58400000000000007         -1.4683474950844670E-005
  0.58699999999999997         -1.5439253663949060E-005
  0.59000000000000008         -1.6185045724946241E-005
  0.59299999999999997         -1.6914324191377344E-005
  0.59600000000000009         -1.7619864272438605E-005
  0.59899999999999998         -1.8294052877104369E-005
  0.60200000000000009         -1.8928750350994028E-005
  0.60500000000000020         -1.9515484502988716E-005
  0.60800000000000010         -2.0045277294647763E-005
  0.61100000000000021         -2.0509020822372268E-005
  0.61400000000000010         -2.0896996984927854E-005
  0.61700000000000021         -2.1199725492077077E-005
  0.62000000000000011         -2.1407302729809689E-005
  0.62300000000000022         -2.1510152041431517E-005
  0.62600000000000011         -2.1498776532896673E-005
  0.62900000000000000         -2.1363727665155015E-005
  0.63200000000000012         -2.1096163356530108E-005
  0.63500000000000001         -2.0687463702490417E-005
  0.63800000000000012         -2.0129707627296077E-005
  0.64100000000000001         -1.9416079748890968E-005
  0.64400000000000013         -1.8540289071614765E-005
  0.64700000000000002         -1.7497033926323711E-005
  0.65000000000000013         -1.6282326253523476E-005
  0.65300000000000002         -1.4893656789566704E-005
  0.65600000000000014         -1.3329665342570491E-005
  0.65900000000000003         -1.1590155308544976E-005
  0.66200000000000014         -9.6773671341117358E-006
  0.66500000000000004         -7.5945859031858436E-006
  0.66800000000000015         -5.3469949960295867E-006
  0.67100000000000004         -2.9415477673136053E-006
  0.67400000000000015         -3.8741826942605543E-007
  0.67700000000000005          2.3047154538975663E-006
  0.68000000000000016          5.1226128276824950E-006
  0.68300000000000005          8.0517254730917107E-006
  0.68600000000000017          1.1075533094648310E-005
  0.68900000000000006          1.4176976944418661E-005
  0.69200000000000017          1.7336670968911665E-005
  0.69500000000000006          2.0533474250367355E-005
  0.69800000000000018          2.3745607807565153E-005
  0.70100000000000007          2.6950176268929402E-005
  0.70400000000000018          3.0123213889836347E-005
  0.70700000000000007          3.3240120441932917E-005
  0.71000000000000019          3.6275951162922866E-005
  0.71300000000000008          3.9205827705756854E-005
  0.71600000000000019          4.2004449919380533E-005
  0.71900000000000008          4.4647062243989925E-005
  0.72200000000000020          4.7109933586006386E-005
  0.72500000000000009          4.9369879670410863E-005
  0.72800000000000020          5.1405058591909583E-005
  0.73100000000000009          5.3195042259486310E-005
  0.73400000000000021          5.4721124760984414E-005
  0.73700000000000010          5.5966301810437698E-005
  0.74000000000000021          5.6916015724757185E-005
  0.74300000000000010          5.7558083623881752E-005
  0.74600000000000022          5.7883024367601545E-005
  0.74900000000000011          5.7883744731044304E-005
  0.75200000000000022          5.7555862037005635E-005
  0.75500000000000012          5.6898229026567977E-005
  0.75800000000000001          5.5912483104228730E-005
  0.76100000000000012          5.4602808576601050E-005
  0.76400000000000001          5.2977098632639746E-005
  0.76700000000000013          5.1045779309674067E-005
  0.77000000000000002          4.8821853738445938E-005
  0.77300000000000013          4.6321203395158198E-005
  0.77600000000000002          4.3561960044106020E-005
  0.77900000000000014          4.0564823919540436E-005
  0.78200000000000003          3.7352341157259693E-005
  0.78500000000000014          3.3949016141305316E-005
  0.78800000000000003          3.0381280098974101E-005
  0.79100000000000015          2.6676221632090434E-005
  0.79400000000000004          2.2862132625434024E-005
  0.79700000000000015          1.8967937709425238E-005
  0.80000000000000004          1.5023369732674288E-005
  0.80300000000000016          1.1057558882191563E-005
  0.80600000000000005          7.1000869926771099E-006
  0.80900000000000016          3.1794301243446950E-006
  0.81200000000000006         -6.7656607652202491E-007
  0.81500000000000017         -4.4413711243416569E-006
  0.81800000000000006         -8.0894874796946265E-006
  0.82100000000000017         -1.1597477096118055E-005
  0.82400000000000007         -1.4943098185944837E-005
  0.82700000000000018         -1.8106519217209154E-005
  0.83000000000000007         -2.1070422945825935E-005
  0.83300000000000018         -2.3818617088033638E-005
  0.83600000000000008         -2.6338684104491155E-005
  0.83900000000000019         -2.8619743159144410E-005
  0.84200000000000008         -3.0653461431014518E-005
  0.84500000000000020         -3.2434318904543325E-005
  0.84800000000000009         -3.3959167385593753E-005
  0.85100000000000020         -3.5227042051199498E-005
  0.85400000000000009         -3.6239473932315948E-005
  0.85700000000000021         -3.6999813732262104E-005
  0.86000000000000010         -3.7513746595960488E-005
  0.86300000000000021         -3.7789060362090557E-005
  0.86600000000000010         -3.7835164647345426E-005
  0.86900000000000022         -3.7662637558218702E-005
  0.87200000000000011         -3.7284235256674741E-005
  0.87500000000000022         -3.6713190505997790E-005
  0.87800000000000011         -3.5963769357207094E-005
  0.88100000000000001         -3.5051228493887907E-005
  0.88400000000000012         -3.3992011836178077E-005
  0.88700000000000001         -3.2802075420506221E-005
  0.89000000000000012         -3.1497520318561633E-005
  0.89300000000000002         -3.0094708655468698E-005
  0.89600000000000013         -2.8610230294539070E-005
  0.89900000000000002         -2.7059940863948864E-005
  0.90200000000000014         -2.5459330818659557E-005
  0.90500000000000003         -2.3823560715979329E-005
  0.90800000000000014         -2.2167066940282222E-005
  0.91100000000000003         -2.0502936923594532E-005
  0.91400000000000015         -1.8843445409309210E-005
  0.91700000000000004         -1.7200488264482073E-005
  0.92000000000000015         -1.5584926901987694E-005
  0.92300000000000004         -1.4006119000287185E-005
  0.92600000000000016         -1.2472409012785311E-005
  0.92900000000000005         -1.0991661522642993E-005
  0.93200000000000016         -9.5702577963997126E-006
  0.93500000000000005         -8.2131200242797411E-006
  0.93800000000000017         -6.9248284019011331E-006
  0.94100000000000006         -5.7092245111939942E-006
  0.94400000000000017         -4.5686059506801026E-006
  0.94700000000000006         -3.5041185720171279E-006
  0.95000000000000018         -2.5168477503706023E-006
  0.95300000000000007         -1.6073210248995438E-006
  0.95600000000000018         -7.7450838023212373E-007
  0.95900000000000007         -1.6946676178029188E-008
  0.96200000000000019          6.6654499173197086E-007
  0.96500000000000008          1.2781735254507320E-006
  0.96800000000000019          1.8212359746061748E-006
  0.97100000000000009          2.2986955199940411E-006
  0.97400000000000020          2.7129898684359859E-006
  0.97700000000000009          3.0677310721629297E-006
  0.98000000000000020          3.3672339419108144E-006
  0.98300000000000010          3.6147611513353385E-006
  0.98600000000000021          3.8137046135458070E-006
  0.98900000000000010          3.9683730734027888E-006
  0.99200000000000021          4.0829463659307535E-006
  0.99500000000000011          4.1602024503107186E-006
  0.99800000000000022          4.2036977692097100E-006
   1.0010000000000001          4.2176637104757582E-006
   1.0040000000000002          4.2054550642651317E-006
   1.0070000000000001          4.1694507649351610E-006
   1.0100000000000000          4.1129374759974556E-006
   1.0130000000000001          4.0394271737202508E-006
   1.0160000000000000          3.9509701526287772E-006
   1.0190000000000001          3.8495158868101468E-006
   1.0220000000000000          3.7381658237636301E-006
   1.0250000000000001          3.6192774871537792E-006
   1.0280000000000000          3.4937913366713170E-006
   1.0310000000000001          3.3633431851698461E-006
   1.0340000000000000          3.2302972318192706E-006
   1.0370000000000001          3.0957928719494745E-006
   1.0400000000000000          2.9603261438426478E-006
   1.0430000000000001          2.8254483181775976E-006
   1.0460000000000000          2.6926246818811869E-006
   1.0490000000000002          2.5618173365858135E-006
   1.0520000000000000          2.4333060051385023E-006
   1.0550000000000002          2.3084611614254723E-006
   1.0580000000000001          2.1878823653151692E-006
   1.0610000000000002          2.0711901451474616E-006
   1.0640000000000001          1.9587474683036929E-006
   1.0670000000000002          1.8513731852203101E-006
   1.0700000000000001          1.7487322022307589E-006
   1.0730000000000002          1.6503473898500651E-006
   1.0760000000000001          1.5568843954785562E-006
   1.0790000000000002          1.4687520340030515E-006
   1.0820000000000001          1.3852507711729115E-006
   1.0850000000000002          1.3060347909483343E-006
   1.0880000000000001          1.2315416572098511E-006
   1.0910000000000002          1.1615492889688169E-006
   1.0940000000000001          1.0953949367724237E-006
   1.0970000000000002          1.0332590273032249E-006
