 -0.39999999999999997          0.0000000000000000     
 -0.39699999999999996          0.0000000000000000     
 -0.39399999999999996          0.0000000000000000     
 -0.39099999999999996          0.0000000000000000     
 -0.38799999999999996          0.0000000000000000     
 -0.38499999999999995          0.0000000000000000     
 -0.38199999999999995          0.0000000000000000     
 -0.37899999999999995          0.0000000000000000     
 -0.37599999999999995          0.0000000000000000     
 -0.37299999999999994          0.0000000000000000     
 -0.37000000000000000          0.0000000000000000     
 -0.36699999999999999          0.0000000000000000     
 -0.36399999999999999          0.0000000000000000     
 -0.36099999999999999          0.0000000000000000     
 -0.35799999999999998          0.0000000000000000     
 -0.35499999999999998          0.0000000000000000     
 -0.35199999999999998          0.0000000000000000     
 -0.34899999999999998          0.0000000000000000     
 -0.34599999999999997          0.0000000000000000     
 -0.34299999999999997          0.0000000000000000     
 -0.33999999999999997          0.0000000000000000     
 -0.33699999999999997          0.0000000000000000     
 -0.33399999999999996          0.0000000000000000     
 -0.33099999999999996          0.0000000000000000     
 -0.32799999999999996          0.0000000000000000     
 -0.32499999999999996          0.0000000000000000     
 -0.32199999999999995          0.0000000000000000     
 -0.31899999999999995          0.0000000000000000     
 -0.31599999999999995          0.0000000000000000     
 -0.31299999999999994          0.0000000000000000     
 -0.30999999999999994          0.0000000000000000     
 -0.30699999999999994          0.0000000000000000     
 -0.30399999999999994          0.0000000000000000     
 -0.30099999999999993          0.0000000000000000     
 -0.29799999999999993          0.0000000000000000     
 -0.29499999999999998          0.0000000000000000     
 -0.29199999999999998          0.0000000000000000     
 -0.28899999999999998          0.0000000000000000     
 -0.28599999999999998          0.0000000000000000     
 -0.28299999999999997          0.0000000000000000     
 -0.27999999999999997          0.0000000000000000     
 -0.27699999999999997          0.0000000000000000     
 -0.27399999999999997          0.0000000000000000     
 -0.27099999999999996          0.0000000000000000     
 -0.26799999999999996          0.0000000000000000     
 -0.26499999999999996          0.0000000000000000     
 -0.26199999999999996          0.0000000000000000     
 -0.25899999999999995          0.0000000000000000     
 -0.25599999999999995          0.0000000000000000     
 -0.25300000000000000          0.0000000000000000     
 -0.24999999999999997          0.0000000000000000     
 -0.24699999999999997          0.0000000000000000     
 -0.24399999999999997          0.0000000000000000     
 -0.24099999999999996          0.0000000000000000     
 -0.23799999999999996          0.0000000000000000     
 -0.23499999999999996          0.0000000000000000     
 -0.23199999999999996          0.0000000000000000     
 -0.22899999999999995          0.0000000000000000     
 -0.22599999999999995          0.0000000000000000     
 -0.22299999999999998          0.0000000000000000     
 -0.21999999999999997          0.0000000000000000     
 -0.21699999999999997          0.0000000000000000     
 -0.21399999999999997          0.0000000000000000     
 -0.21099999999999997          0.0000000000000000     
 -0.20799999999999996          0.0000000000000000     
 -0.20499999999999996          0.0000000000000000     
 -0.20199999999999996          0.0000000000000000     
 -0.19899999999999995          0.0000000000000000     
 -0.19599999999999995          0.0000000000000000     
 -0.19299999999999995          0.0000000000000000     
 -0.18999999999999997          0.0000000000000000     
 -0.18699999999999997          0.0000000000000000     
 -0.18399999999999997          0.0000000000000000     
 -0.18099999999999997          0.0000000000000000     
 -0.17799999999999996          0.0000000000000000     
 -0.17499999999999996          0.0000000000000000     
 -0.17199999999999996          0.0000000000000000     
 -0.16899999999999996          0.0000000000000000     
 -0.16599999999999995          0.0000000000000000     
 -0.16299999999999995          0.0000000000000000     
 -0.15999999999999998          0.0000000000000000     
 -0.15699999999999997          0.0000000000000000     
 -0.15399999999999997          0.0000000000000000     
 -0.15099999999999997          0.0000000000000000     
 -0.14799999999999996          0.0000000000000000     
 -0.14499999999999996          0.0000000000000000     
 -0.14199999999999996          0.0000000000000000     
 -0.13899999999999996          0.0000000000000000     
 -0.13599999999999995          0.0000000000000000     
 -0.13299999999999995          0.0000000000000000     
 -0.12999999999999995          0.0000000000000000     
 -0.12699999999999995          0.0000000000000000     
 -0.12399999999999994          0.0000000000000000     
 -0.12099999999999994          0.0000000000000000     
 -0.11799999999999994          0.0000000000000000     
 -0.11499999999999994          0.0000000000000000     
 -0.11199999999999993          0.0000000000000000     
 -0.10899999999999999          0.0000000000000000     
 -0.10599999999999998          0.0000000000000000     
 -0.10299999999999998          0.0000000000000000     
  -9.9999999999999978E-002     0.0000000000000000     
  -9.6999999999999975E-002     0.0000000000000000     
  -9.3999999999999972E-002     0.0000000000000000     
  -9.0999999999999970E-002     0.0000000000000000     
  -8.7999999999999967E-002     0.0000000000000000     
  -8.4999999999999964E-002     0.0000000000000000     
  -8.1999999999999962E-002     0.0000000000000000     
  -7.8999999999999959E-002     0.0000000000000000     
  -7.5999999999999956E-002     0.0000000000000000     
  -7.2999999999999954E-002     0.0000000000000000     
  -6.9999999999999951E-002     0.0000000000000000     
  -6.6999999999999948E-002     0.0000000000000000     
  -6.3999999999999946E-002     0.0000000000000000     
  -6.0999999999999943E-002     0.0000000000000000     
  -5.7999999999999940E-002     0.0000000000000000     
  -5.4999999999999938E-002     0.0000000000000000     
  -5.1999999999999935E-002     0.0000000000000000     
  -4.8999999999999932E-002     0.0000000000000000     
  -4.5999999999999985E-002     0.0000000000000000     
  -4.2999999999999983E-002     0.0000000000000000     
  -3.9999999999999980E-002     0.0000000000000000     
  -3.6999999999999977E-002     0.0000000000000000     
  -3.3999999999999975E-002     0.0000000000000000     
  -3.0999999999999972E-002     0.0000000000000000     
  -2.7999999999999969E-002     0.0000000000000000     
  -2.4999999999999967E-002     0.0000000000000000     
  -2.1999999999999964E-002     0.0000000000000000     
  -1.8999999999999961E-002     0.0000000000000000     
  -1.5999999999999959E-002     0.0000000000000000     
  -1.2999999999999956E-002     0.0000000000000000     
  -9.9999999999999534E-003     0.0000000000000000     
  -6.9999999999999507E-003     0.0000000000000000     
  -3.9999999999999480E-003     0.0000000000000000     
  -9.9999999999994538E-004     0.0000000000000000     
   2.0000000000000573E-003     0.0000000000000000     
   5.0000000000000600E-003     0.0000000000000000     
   8.0000000000000626E-003     0.0000000000000000     
   1.1000000000000065E-002     0.0000000000000000     
   1.4000000000000068E-002     0.0000000000000000     
   1.7000000000000015E-002     0.0000000000000000     
   2.0000000000000018E-002     0.0000000000000000     
   2.3000000000000020E-002     0.0000000000000000     
   2.6000000000000023E-002     0.0000000000000000     
   2.9000000000000026E-002    -1.5261231984888823E-041
   3.2000000000000028E-002     7.3480832200890951E-042
   3.5000000000000031E-002     7.0156668142724332E-041
   3.8000000000000034E-002     6.6647199349964541E-041
   4.1000000000000036E-002    -1.6507420350497119E-040
   4.4000000000000039E-002    -1.5279897498372143E-039
   4.7000000000000042E-002    -2.9408838280609997E-040
   5.0000000000000044E-002     2.3791094378002651E-039
   5.3000000000000047E-002     2.5465162667026593E-039
   5.6000000000000050E-002     3.3877279105896153E-040
   5.9000000000000052E-002    -6.3655724947097188E-039
   6.2000000000000055E-002    -3.5063241935870374E-038
   6.5000000000000058E-002    -2.5060826259184581E-038
   6.8000000000000060E-002     4.2341384509630426E-038
   7.1000000000000063E-002     1.3836990531478725E-037
   7.4000000000000066E-002     1.4922041241741526E-037
   7.7000000000000068E-002    -6.2141454013575953E-038
   8.0000000000000016E-002    -4.7312230339718554E-037
   8.3000000000000018E-002    -7.2036852145774800E-037
   8.6000000000000021E-002    -1.9917362589116659E-037
   8.9000000000000024E-002     1.3410613566881329E-036
   9.2000000000000026E-002     2.9543857135718212E-036
   9.5000000000000029E-002     2.3372790669453269E-036
   9.8000000000000032E-002    -2.5527084868018848E-036
  0.10100000000000003         -1.0202685680943991E-035
  0.10400000000000004         -1.3194184454432333E-035
  0.10700000000000004         -1.2740959071951521E-036
  0.11000000000000004          2.7829087038439100E-035
  0.11300000000000004          5.5409335774836357E-035
  0.11600000000000005          4.1694796318029089E-035
  0.11900000000000005         -4.5951609453996925E-035
  0.12200000000000005         -1.8093905922114160E-034
  0.12500000000000006         -2.4219109375519263E-034
  0.12800000000000006         -6.0708247040093363E-035
  0.13100000000000006          4.1897319820247996E-034
  0.13400000000000006          9.3775590802052268E-034
  0.13700000000000007          8.8832710558953960E-034
  0.14000000000000007         -3.2635112920621019E-034
  0.14300000000000007         -2.5532609375121853E-033
  0.14600000000000007         -4.2467513445410377E-033
  0.14900000000000008         -2.7855619114270499E-033
  0.15200000000000008          3.6172709487895459E-033
  0.15500000000000008          1.2962226604594837E-032
  0.15800000000000008          1.7750426528774960E-032
  0.16100000000000009          7.6699638847085264E-033
  0.16400000000000009         -2.1900295984790638E-032
  0.16700000000000009         -5.9073683082307637E-032
  0.17000000000000010         -7.1624065020014893E-032
  0.17300000000000010         -2.0836275909547352E-032
  0.17600000000000010          1.0461089149701341E-031
  0.17899999999999999          2.5055997817435638E-031
  0.18200000000000000          2.8932211117199897E-031
  0.18500000000000000          7.6712155137135056E-032
  0.18800000000000000         -4.2297843040381806E-031
  0.19100000000000000         -1.0031291225556966E-030
  0.19400000000000001         -1.1892631983515764E-030
  0.19700000000000001         -4.3758637080563524E-031
  0.20000000000000001          1.4328290931521045E-030
  0.20300000000000001          3.7624859366546720E-030
  0.20600000000000002          4.9052977144063223E-030
  0.20900000000000002          2.8042373862116127E-030
  0.21200000000000002         -3.6198077305970931E-030
  0.21500000000000002         -1.2767028128214977E-029
  0.21800000000000003         -1.9468735261428323E-029
  0.22100000000000003         -1.6222150828241155E-029
  0.22400000000000003          2.8133239155591093E-030
  0.22700000000000004          3.6039430307113824E-029
  0.23000000000000004          6.9840690069375486E-029
  0.23300000000000004          7.9384661221302584E-029
  0.23600000000000004          3.8044609399766532E-029
  0.23900000000000005         -6.5086339308707063E-029
  0.24200000000000005         -2.0596426355860046E-028
  0.24500000000000005         -3.1636961692762600E-028
  0.24800000000000005         -2.9752786116339258E-028
  0.25100000000000006         -6.3062189922579958E-029
  0.25400000000000006          3.9654758154623792E-028
  0.25700000000000006          9.5405861928875523E-028
  0.26000000000000006          1.3296944215582569E-027
  0.26300000000000007          1.1572388893579863E-027
  0.26600000000000007          1.4480528401200443E-028
  0.26900000000000007         -1.7037192930239927E-027
  0.27200000000000008         -3.8952026830194091E-027
  0.27500000000000008         -5.4071245273100553E-027
  0.27800000000000008         -4.9152159859118509E-027
  0.28100000000000008         -1.3252327090776876E-027
  0.28400000000000009          5.4947062618793823E-027
  0.28700000000000009          1.4046492308505759E-026
  0.29000000000000009          2.0977468407130861E-026
  0.29300000000000009          2.1661212545903861E-026
  0.29600000000000010          1.1744793466600676E-026
  0.29900000000000010         -1.0556498002000359E-026
  0.30200000000000010         -4.2103295907285260E-026
  0.30499999999999999         -7.3481721069108214E-026
  0.30800000000000000         -8.9807687526130659E-026
  0.31100000000000000         -7.4445717825752104E-026
  0.31400000000000000         -1.5496368736452352E-026
  0.31700000000000000          8.6361677694813526E-026
  0.32000000000000001          2.1134842646741146E-025
  0.32300000000000001          3.1877802275507748E-025
  0.32600000000000001          3.5303960050079635E-025
  0.32900000000000001          2.5871297550327679E-025
  0.33200000000000002          3.1511755031977400E-027
  0.33500000000000002         -3.9883227772463490E-025
  0.33800000000000002         -8.6677717795454576E-025
  0.34100000000000003         -1.2528733510688418E-024
  0.34400000000000003         -1.3649618166957099E-024
  0.34700000000000003         -1.0169288680574518E-024
  0.35000000000000003         -1.0036919339703675E-025
  0.35300000000000004          1.3388628065951008E-024
  0.35600000000000004          3.0442499858542702E-024
  0.35900000000000004          4.5408408203542805E-024
  0.36200000000000004          5.1996582420790833E-024
  0.36500000000000005          4.3830026396776039E-024
  0.36800000000000005          1.6558757674893733E-024
  0.37100000000000005         -2.9789178797213549E-024
  0.37400000000000005         -8.8888390818738186E-024
  0.37700000000000006         -1.4741945310973650E-023
  0.38000000000000006         -1.8630420101354490E-023
  0.38300000000000006         -1.8425054609020664E-023
  0.38600000000000007         -1.2341765977662411E-023
  0.38900000000000007          3.7001060309365694E-025
  0.39200000000000007          1.8776652667039597E-023
  0.39500000000000007          3.9853723348724962E-023
  0.39800000000000008          5.8532637514865742E-023
  0.40100000000000008          6.8353778371245604E-023
  0.40400000000000008          6.2761507926109557E-023
  0.40700000000000008          3.6909238273517702E-023
  0.41000000000000009         -1.0342334174026163E-023
  0.41300000000000009         -7.4709491152130816E-023
  0.41600000000000009         -1.4561108183823878E-022
  0.41900000000000009         -2.0665401592598314E-022
  0.42200000000000010         -2.3781119987761766E-022
  0.42500000000000010         -2.1929448127348661E-022
  0.42800000000000010         -1.3669609410275453E-022
  0.43100000000000011          1.3479408876713435E-023
  0.43400000000000000          2.1913617421269755E-022
  0.43700000000000000          4.5017462317950488E-022
  0.44000000000000000          6.5963616114242132E-022
  0.44300000000000000          7.8923260222604244E-022
  0.44600000000000001          7.7930286058129906E-022
  0.44900000000000001          5.8222893113891610E-022
  0.45200000000000001          1.7728057708991200E-022
  0.45500000000000002         -4.1603170171615822E-022
  0.45800000000000002         -1.1294888125712055E-021
  0.46100000000000002         -1.8458376512242903E-021
  0.46400000000000002         -2.4089773361877309E-021
  0.46700000000000003         -2.6454354483744737E-021
  0.47000000000000003         -2.3957417921521682E-021
  0.47300000000000003         -1.5519128457218011E-021
  0.47600000000000003         -9.5046024120992589E-023
  0.47900000000000004          1.8744955480351805E-021
  0.48200000000000004          4.1222535276713441E-021
  0.48500000000000004          6.2870828843460906E-021
  0.48800000000000004          7.9151070218759972E-021
  0.49100000000000005          8.5205413667983511E-021
  0.49400000000000005          7.6687911936262989E-021
  0.49700000000000005          5.0720724934055777E-021
  0.50000000000000000          6.8329989179196310E-022
  0.50300000000000011         -5.2289670838761087E-021
  0.50600000000000001         -1.2042373525884205E-020
  0.50900000000000012         -1.8794904932662091E-020
  0.51200000000000001         -2.4261455648461213E-020
  0.51500000000000012         -2.7094782505765650E-020
  0.51800000000000002         -2.6022729777030637E-020
  0.52100000000000013         -2.0082592766449577E-020
  0.52400000000000002         -8.8634948597324406E-021
  0.52700000000000014          7.2800814550880976E-021
  0.53000000000000003          2.7084073335056733E-020
  0.53300000000000014          4.8338628319816520E-020
  0.53600000000000003          6.7990925772263961E-020
  0.53900000000000015          8.2404076655199285E-020
  0.54200000000000004          8.7770002014728373E-020
  0.54500000000000015          8.0651272980561129E-020
  0.54800000000000004          5.8602726122179440E-020
  0.55100000000000016          2.0801044071826566E-020
  0.55400000000000005         -3.1406822706741447E-020
  0.55700000000000016         -9.4134691933991867E-020
  0.56000000000000005         -1.6086363946436639E-019
  0.56299999999999994         -2.2270362195897895E-019
  0.56600000000000006         -2.6906078272877982E-019
  0.56899999999999995         -2.8871494217488913E-019
  0.57200000000000006         -2.7126033724956611E-019
  0.57499999999999996         -2.0879749568969212E-019
  0.57800000000000007         -9.7707540859131069E-020
  0.58099999999999996          5.9714258312104974E-020
  0.58400000000000007          2.5402270735907838E-019
  0.58699999999999997          4.6805185662532846E-019
  0.59000000000000008          6.7724845250186537E-019
  0.59299999999999997          8.5109278257499892E-019
  0.59600000000000009          9.5568338630155767E-019
  0.59899999999999998          9.5743278054309034E-019
  0.60200000000000009          8.2765773707783943E-019
  0.60500000000000020          5.4768369673797455E-019
  0.60800000000000010          1.1392085707208080E-019
  0.61100000000000021         -4.5775533067307586E-019
  0.61400000000000010         -1.1290534026792967E-018
  0.61700000000000021         -1.8384697368255892E-018
  0.62000000000000011         -2.5032791189647303E-018
  0.62300000000000022         -3.0247189199687212E-018
  0.62600000000000011         -3.2964965482953495E-018
  0.62900000000000000         -3.2163365204192630E-018
  0.63200000000000012         -2.6998710723087914E-018
  0.63500000000000001         -1.6957088102212790E-018
  0.63800000000000012         -2.0011659569756328E-019
  0.64100000000000001          1.7305607280775073E-018
  0.64400000000000013          3.9717726068178566E-018
  0.64700000000000002          6.3289092423555365E-018
  0.65000000000000013          8.5433988246494596E-018
  0.65300000000000002          1.0307886227634194E-017
  0.65600000000000014          1.1290803264543699E-017
  0.65900000000000003          1.1169655487899765E-017
  0.66200000000000014          9.6711689924935612E-018
  0.66500000000000004          6.6152465013356229E-018
  0.66800000000000015          1.9586067772969457E-018
  0.67100000000000004         -4.1669027083779379E-018
  0.67400000000000015         -1.1426891467373405E-017
  0.67700000000000005         -1.9273419241487070E-017
  0.68000000000000016         -2.6955325557741487E-017
  0.68300000000000005         -3.3553673127809573E-017
  0.68600000000000017         -3.8043970858164213E-017
  0.68900000000000006         -3.9384546580107054E-017
  0.69200000000000017         -3.6627291351569642E-017
  0.69500000000000006         -2.9043852356291251E-017
  0.69800000000000018         -1.6257294648796754E-017
  0.70100000000000007          1.6336769655123152E-018
  0.70400000000000018          2.3952672547405954E-017
  0.70700000000000007          4.9381610441211359E-017
  0.71000000000000019          7.5949649233666530E-017
  0.71300000000000008          1.0108816030461095E-016
  0.71600000000000019          1.2176073955394052E-016
  0.71900000000000008          1.3467104494919806E-016
  0.72200000000000020          1.3654473237201383E-016
  0.72500000000000009          1.2447270694360345E-016
  0.72800000000000020          9.6294652719201947E-017
  0.73100000000000009          5.0992532600271898E-017
  0.73400000000000021         -1.0942626792256774E-017
  0.73700000000000010         -8.7213459622283868E-017
  0.74000000000000021         -1.7353267608004114E-016
  0.74300000000000010         -2.6359593585808096E-016
  0.74600000000000022         -3.4924722610962690E-016
  0.74900000000000011         -4.2086238967863381E-016
  0.75200000000000022         -4.6795996235580424E-016
  0.75500000000000012         -4.8002883301135733E-016
  0.75800000000000001         -4.4754024165100554E-016
  0.76100000000000012         -3.6308611407830425E-016
  0.76400000000000001         -2.2256310676990168E-016
  0.76700000000000013         -2.6301356965009331E-017
  0.77000000000000002          2.1998003170026770E-016
  0.77300000000000013          5.0451600271488906E-016
  0.77600000000000002          8.0925877156838208E-016
  0.77900000000000014          1.1101712997387364E-015
  0.78200000000000003          1.3781350065021957E-015
  0.78500000000000014          1.5805124906841006E-015
  0.78800000000000003          1.6833640936613358E-015
  0.79100000000000015          1.6542517345603866E-015
  0.79400000000000004          1.4654969236484407E-015
  0.79700000000000015          1.0977003900962438E-015
  0.80000000000000004          5.4326473204611223E-016
  0.80300000000000016         -1.9038805664906203E-016
  0.80600000000000005         -1.0782498732893886E-015
  0.80900000000000016         -2.0761599696427637E-015
  0.81200000000000006         -3.1205778060194697E-015
  0.81500000000000017         -4.1299799162314625E-015
  0.81800000000000006         -5.0080939930476858E-015
  0.82100000000000017         -5.6490529820645957E-015
  0.82400000000000007         -5.9444117042218711E-015
  0.82700000000000018         -5.7918219640482819E-015
  0.83000000000000007         -5.1049504490071162E-015
  0.83300000000000018         -3.8240752422370175E-015
  0.83600000000000008         -1.9266042462694265E-015
  0.83900000000000019          5.6334856201124430E-016
  0.84200000000000008          3.5673009068931219E-015
  0.84500000000000020          6.9476483937026901E-015
  0.84800000000000009          1.0506755311301248E-014
  0.85100000000000020          1.3990711195911274E-014
  0.85400000000000009          1.7098344294279297E-014
  0.85700000000000021          1.9495778902001433E-014
  0.86000000000000010          2.0836421784098748E-014
  0.86300000000000021          2.0785926469190725E-014
  0.86600000000000010          1.9050976563029067E-014
  0.86900000000000022          1.5410511894476822E-014
  0.87200000000000011          9.7473962128266492E-015
  0.87500000000000022          2.0781670623839804E-015
  0.87800000000000011         -7.4217221903196344E-015
  0.88100000000000001         -1.8399955673890358E-014
  0.88400000000000012         -3.0319340974715016E-014
  0.88700000000000001         -4.2462228738769726E-014
  0.89000000000000012         -5.3949217609624692E-014
  0.89300000000000002         -6.3773481690065241E-014
  0.89600000000000013         -7.0850916377959651E-014
  0.89900000000000002         -7.4085362943705041E-014
  0.90200000000000014         -7.2446884700956711E-014
  0.90500000000000003         -6.5059744390396468E-014
  0.90800000000000014         -5.1295460271385030E-014
  0.91100000000000003         -3.0865413726961285E-014
  0.91400000000000015         -3.9060297630381125E-015
  0.91700000000000004          2.8950560413218096E-014
  0.92000000000000015          6.6527838688552009E-014
  0.92300000000000004          1.0708568013435511E-013
  0.92600000000000016          1.4833669981925260E-013
  0.92900000000000005          1.8750348262012550E-013
  0.93200000000000016          2.2141973379420955E-013
  0.93500000000000005          2.4667582328594730E-013
  0.93800000000000017          2.5980668723488123E-013
  0.94100000000000006          2.5751663395377703E-013
  0.94400000000000017          2.3693198603107598E-013
  0.94700000000000006          1.9587000952175103E-013
  0.95000000000000018          1.3310865227283121E-013
  0.95300000000000007          4.8640115458233163E-014
  0.95600000000000018         -5.6111592019466049E-014
  0.95900000000000007         -1.7812854285021350E-013
  0.96200000000000019         -3.1271118001025348E-013
  0.96500000000000008         -4.5348401858626100E-013
  0.96800000000000019         -5.9250832798667132E-013
  0.97100000000000009         -7.2051194524944322E-013
  0.97400000000000020         -8.2724027924714015E-013
  0.97700000000000009         -9.0192674700634412E-013
  0.98000000000000020         -9.3387241469015991E-013
  0.98300000000000010         -9.1311442048192320E-013
  0.98600000000000021         -8.3115778523583905E-013
  0.98900000000000010         -6.8173650912490831E-013
  0.99200000000000021         -4.6156084184148903E-013
  0.99500000000000011         -1.7100505195093467E-013
  0.99800000000000022          1.8531549452499789E-013
   1.0010000000000001          5.9812730864583510E-013
   1.0040000000000002          1.0532926011288244E-012
   1.0070000000000001          1.5318588664603819E-012
   1.0100000000000000          2.0103963563436900E-012
   1.0130000000000001          2.4616515851817022E-012
   1.0160000000000000          2.8555260981203656E-012
   1.0190000000000001          3.1603742702947421E-012
   1.0220000000000000          3.3445967164655275E-012
   1.0250000000000001          3.3784820486189104E-012
   1.0280000000000000          3.2362443429506929E-012
   1.0310000000000001          2.8981590232899395E-012
   1.0340000000000000          2.3527169342784744E-012
   1.0370000000000001          1.5986797969008110E-012
   1.0400000000000000          6.4691726232181252E-013
   1.0430000000000001         -4.7808684800933385E-013
   1.0460000000000000         -1.7371894193485638E-012
   1.0490000000000002         -3.0761007247893955E-012
   1.0520000000000000         -4.4255635453916678E-012
   1.0550000000000002         -5.7022555352673166E-012
   1.0580000000000001         -6.8104736883508274E-012
   1.0610000000000002         -7.6446081823440849E-012
   1.0640000000000001         -8.0923839527276630E-012
   1.0670000000000002         -8.0388219894578955E-012
   1.0700000000000001         -7.3708112550269843E-012
   1.0730000000000002         -5.9821636232858799E-012
   1.0760000000000001         -3.7790097207981050E-012
   1.0790000000000002         -6.8530824003228039E-013
   1.0820000000000001          3.3516763077698448E-012
   1.0850000000000002          8.3561857872345200E-012
   1.0880000000000001          1.4319229186962903E-011
   1.0910000000000002          2.1194499837021773E-011
   1.0940000000000001          2.8895132429310350E-011
   1.0970000000000002          3.7291298349336268E-011
