 -0.39999999999999997          0.0000000000000000     
 -0.39699999999999996          0.0000000000000000     
 -0.39399999999999996          0.0000000000000000     
 -0.39099999999999996          0.0000000000000000     
 -0.38799999999999996          0.0000000000000000     
 -0.38499999999999995          0.0000000000000000     
 -0.38199999999999995          0.0000000000000000     
 -0.37899999999999995          0.0000000000000000     
 -0.37599999999999995          0.0000000000000000     
 -0.37299999999999994          0.0000000000000000     
 -0.37000000000000000          0.0000000000000000     
 -0.36699999999999999          0.0000000000000000     
 -0.36399999999999999          0.0000000000000000     
 -0.36099999999999999          0.0000000000000000     
 -0.35799999999999998          0.0000000000000000     
 -0.35499999999999998          0.0000000000000000     
 -0.35199999999999998          0.0000000000000000     
 -0.34899999999999998          0.0000000000000000     
 -0.34599999999999997          0.0000000000000000     
 -0.34299999999999997          0.0000000000000000     
 -0.33999999999999997          0.0000000000000000     
 -0.33699999999999997          0.0000000000000000     
 -0.33399999999999996          0.0000000000000000     
 -0.33099999999999996          0.0000000000000000     
 -0.32799999999999996          0.0000000000000000     
 -0.32499999999999996          0.0000000000000000     
 -0.32199999999999995          0.0000000000000000     
 -0.31899999999999995          0.0000000000000000     
 -0.31599999999999995          0.0000000000000000     
 -0.31299999999999994          0.0000000000000000     
 -0.30999999999999994          0.0000000000000000     
 -0.30699999999999994          0.0000000000000000     
 -0.30399999999999994          0.0000000000000000     
 -0.30099999999999993          0.0000000000000000     
 -0.29799999999999993          0.0000000000000000     
 -0.29499999999999998          0.0000000000000000     
 -0.29199999999999998          0.0000000000000000     
 -0.28899999999999998          0.0000000000000000     
 -0.28599999999999998          0.0000000000000000     
 -0.28299999999999997          0.0000000000000000     
 -0.27999999999999997          0.0000000000000000     
 -0.27699999999999997          0.0000000000000000     
 -0.27399999999999997          0.0000000000000000     
 -0.27099999999999996          0.0000000000000000     
 -0.26799999999999996          0.0000000000000000     
 -0.26499999999999996          0.0000000000000000     
 -0.26199999999999996          0.0000000000000000     
 -0.25899999999999995          0.0000000000000000     
 -0.25599999999999995          0.0000000000000000     
 -0.25300000000000000          0.0000000000000000     
 -0.24999999999999997          0.0000000000000000     
 -0.24699999999999997          0.0000000000000000     
 -0.24399999999999997          0.0000000000000000     
 -0.24099999999999996          0.0000000000000000     
 -0.23799999999999996          0.0000000000000000     
 -0.23499999999999996          0.0000000000000000     
 -0.23199999999999996          0.0000000000000000     
 -0.22899999999999995          0.0000000000000000     
 -0.22599999999999995          0.0000000000000000     
 -0.22299999999999998          0.0000000000000000     
 -0.21999999999999997          0.0000000000000000     
 -0.21699999999999997          0.0000000000000000     
 -0.21399999999999997          0.0000000000000000     
 -0.21099999999999997          0.0000000000000000     
 -0.20799999999999996          0.0000000000000000     
 -0.20499999999999996          0.0000000000000000     
 -0.20199999999999996          0.0000000000000000     
 -0.19899999999999995          0.0000000000000000     
 -0.19599999999999995          0.0000000000000000     
 -0.19299999999999995          0.0000000000000000     
 -0.18999999999999997          0.0000000000000000     
 -0.18699999999999997          0.0000000000000000     
 -0.18399999999999997          0.0000000000000000     
 -0.18099999999999997          0.0000000000000000     
 -0.17799999999999996          0.0000000000000000     
 -0.17499999999999996          0.0000000000000000     
 -0.17199999999999996          0.0000000000000000     
 -0.16899999999999996          0.0000000000000000     
 -0.16599999999999995          0.0000000000000000     
 -0.16299999999999995          0.0000000000000000     
 -0.15999999999999998          0.0000000000000000     
 -0.15699999999999997          0.0000000000000000     
 -0.15399999999999997          0.0000000000000000     
 -0.15099999999999997          0.0000000000000000     
 -0.14799999999999996          0.0000000000000000     
 -0.14499999999999996          0.0000000000000000     
 -0.14199999999999996          0.0000000000000000     
 -0.13899999999999996          0.0000000000000000     
 -0.13599999999999995          0.0000000000000000     
 -0.13299999999999995          0.0000000000000000     
 -0.12999999999999995          0.0000000000000000     
 -0.12699999999999995          0.0000000000000000     
 -0.12399999999999994          0.0000000000000000     
 -0.12099999999999994          0.0000000000000000     
 -0.11799999999999994          0.0000000000000000     
 -0.11499999999999994          0.0000000000000000     
 -0.11199999999999993          0.0000000000000000     
 -0.10899999999999999          0.0000000000000000     
 -0.10599999999999998          0.0000000000000000     
 -0.10299999999999998          0.0000000000000000     
  -9.9999999999999978E-002     0.0000000000000000     
  -9.6999999999999975E-002     0.0000000000000000     
  -9.3999999999999972E-002     0.0000000000000000     
  -9.0999999999999970E-002     0.0000000000000000     
  -8.7999999999999967E-002     0.0000000000000000     
  -8.4999999999999964E-002     0.0000000000000000     
  -8.1999999999999962E-002     0.0000000000000000     
  -7.8999999999999959E-002     0.0000000000000000     
  -7.5999999999999956E-002     0.0000000000000000     
  -7.2999999999999954E-002     0.0000000000000000     
  -6.9999999999999951E-002     0.0000000000000000     
  -6.6999999999999948E-002     0.0000000000000000     
  -6.3999999999999946E-002     0.0000000000000000     
  -6.0999999999999943E-002     0.0000000000000000     
  -5.7999999999999940E-002     0.0000000000000000     
  -5.4999999999999938E-002     0.0000000000000000     
  -5.1999999999999935E-002     0.0000000000000000     
  -4.8999999999999932E-002     0.0000000000000000     
  -4.5999999999999985E-002     0.0000000000000000     
  -4.2999999999999983E-002     0.0000000000000000     
  -3.9999999999999980E-002     0.0000000000000000     
  -3.6999999999999977E-002     0.0000000000000000     
  -3.3999999999999975E-002     0.0000000000000000     
  -3.0999999999999972E-002     0.0000000000000000     
  -2.7999999999999969E-002     0.0000000000000000     
  -2.4999999999999967E-002     0.0000000000000000     
  -2.1999999999999964E-002     0.0000000000000000     
  -1.8999999999999961E-002     0.0000000000000000     
  -1.5999999999999959E-002     0.0000000000000000     
  -1.2999999999999956E-002     0.0000000000000000     
  -9.9999999999999534E-003     0.0000000000000000     
  -6.9999999999999507E-003     0.0000000000000000     
  -3.9999999999999480E-003     0.0000000000000000     
  -9.9999999999994538E-004     0.0000000000000000     
   2.0000000000000573E-003     0.0000000000000000     
   5.0000000000000600E-003     0.0000000000000000     
   8.0000000000000626E-003     0.0000000000000000     
   1.1000000000000065E-002     0.0000000000000000     
   1.4000000000000068E-002     0.0000000000000000     
   1.7000000000000015E-002     0.0000000000000000     
   2.0000000000000018E-002     0.0000000000000000     
   2.3000000000000020E-002     0.0000000000000000     
   2.6000000000000023E-002     0.0000000000000000     
   2.9000000000000026E-002     0.0000000000000000     
   3.2000000000000028E-002     0.0000000000000000     
   3.5000000000000031E-002     0.0000000000000000     
   3.8000000000000034E-002     0.0000000000000000     
   4.1000000000000036E-002     0.0000000000000000     
   4.4000000000000039E-002     0.0000000000000000     
   4.7000000000000042E-002     0.0000000000000000     
   5.0000000000000044E-002     0.0000000000000000     
   5.3000000000000047E-002     0.0000000000000000     
   5.6000000000000050E-002     0.0000000000000000     
   5.9000000000000052E-002     0.0000000000000000     
   6.2000000000000055E-002     0.0000000000000000     
   6.5000000000000058E-002     0.0000000000000000     
   6.8000000000000060E-002     0.0000000000000000     
   7.1000000000000063E-002     0.0000000000000000     
   7.4000000000000066E-002     0.0000000000000000     
   7.7000000000000068E-002     0.0000000000000000     
   8.0000000000000016E-002     0.0000000000000000     
   8.3000000000000018E-002     0.0000000000000000     
   8.6000000000000021E-002     0.0000000000000000     
   8.9000000000000024E-002     0.0000000000000000     
   9.2000000000000026E-002     0.0000000000000000     
   9.5000000000000029E-002     0.0000000000000000     
   9.8000000000000032E-002     0.0000000000000000     
  0.10100000000000003          0.0000000000000000     
  0.10400000000000004          0.0000000000000000     
  0.10700000000000004          0.0000000000000000     
  0.11000000000000004          0.0000000000000000     
  0.11300000000000004          0.0000000000000000     
  0.11600000000000005          0.0000000000000000     
  0.11900000000000005          0.0000000000000000     
  0.12200000000000005          0.0000000000000000     
  0.12500000000000006          0.0000000000000000     
  0.12800000000000006          0.0000000000000000     
  0.13100000000000006          0.0000000000000000     
  0.13400000000000006          0.0000000000000000     
  0.13700000000000007          0.0000000000000000     
  0.14000000000000007          0.0000000000000000     
  0.14300000000000007          0.0000000000000000     
  0.14600000000000007          0.0000000000000000     
  0.14900000000000008          0.0000000000000000     
  0.15200000000000008          0.0000000000000000     
  0.15500000000000008          0.0000000000000000     
  0.15800000000000008          0.0000000000000000     
  0.16100000000000009          0.0000000000000000     
  0.16400000000000009          0.0000000000000000     
  0.16700000000000009          0.0000000000000000     
  0.17000000000000010          0.0000000000000000     
  0.17300000000000010          0.0000000000000000     
  0.17600000000000010          0.0000000000000000     
  0.17899999999999999          0.0000000000000000     
  0.18200000000000000          0.0000000000000000     
  0.18500000000000000          0.0000000000000000     
  0.18800000000000000          0.0000000000000000     
  0.19100000000000000          0.0000000000000000     
  0.19400000000000001          0.0000000000000000     
  0.19700000000000001          0.0000000000000000     
  0.20000000000000001          0.0000000000000000     
  0.20300000000000001          0.0000000000000000     
  0.20600000000000002          0.0000000000000000     
  0.20900000000000002          0.0000000000000000     
  0.21200000000000002          0.0000000000000000     
  0.21500000000000002          0.0000000000000000     
  0.21800000000000003          0.0000000000000000     
  0.22100000000000003          0.0000000000000000     
  0.22400000000000003          0.0000000000000000     
  0.22700000000000004          0.0000000000000000     
  0.23000000000000004          0.0000000000000000     
  0.23300000000000004          0.0000000000000000     
  0.23600000000000004          0.0000000000000000     
  0.23900000000000005          0.0000000000000000     
  0.24200000000000005          0.0000000000000000     
  0.24500000000000005          0.0000000000000000     
  0.24800000000000005          0.0000000000000000     
  0.25100000000000006          0.0000000000000000     
  0.25400000000000006          0.0000000000000000     
  0.25700000000000006          0.0000000000000000     
  0.26000000000000006          0.0000000000000000     
  0.26300000000000007          0.0000000000000000     
  0.26600000000000007          0.0000000000000000     
  0.26900000000000007          0.0000000000000000     
  0.27200000000000008          0.0000000000000000     
  0.27500000000000008          0.0000000000000000     
  0.27800000000000008          0.0000000000000000     
  0.28100000000000008          0.0000000000000000     
  0.28400000000000009          0.0000000000000000     
  0.28700000000000009          0.0000000000000000     
  0.29000000000000009          0.0000000000000000     
  0.29300000000000009          0.0000000000000000     
  0.29600000000000010          0.0000000000000000     
  0.29900000000000010          4.8286716829256038E-042
  0.30200000000000010         -6.2423149047371202E-042
  0.30499999999999999         -1.5404905925490696E-041
  0.30800000000000000          2.3311547703237837E-041
  0.31100000000000000          1.7511286427340792E-041
  0.31400000000000000         -7.5744813767762848E-041
  0.31700000000000000         -5.7345242321120633E-040
  0.32000000000000001         -7.2883805165477219E-040
  0.32300000000000001         -5.1872696075528749E-040
  0.32600000000000001          3.3493389055416401E-041
  0.32900000000000001          1.3890939316900042E-039
  0.33200000000000002          2.9942626615446498E-039
  0.33500000000000002          4.0430306909424263E-039
  0.33800000000000002          2.8905618409580883E-039
  0.34100000000000003         -3.3058791382890746E-039
  0.34400000000000003         -9.7221914584816232E-039
  0.34700000000000003         -1.7341033045831150E-038
  0.35000000000000003         -2.0920449012215796E-038
  0.35300000000000004         -1.3602984307711392E-038
  0.35600000000000004          1.8893559473771742E-038
  0.35900000000000004          5.2794839197768566E-038
  0.36200000000000004          8.5310169572180650E-038
  0.36500000000000005          9.7827354345639693E-038
  0.36800000000000005          7.8837107140207217E-038
  0.37100000000000005         -2.2595245809195992E-039
  0.37400000000000005         -1.4319814987122433E-037
  0.37700000000000006         -3.1979749916584511E-037
  0.38000000000000006         -4.7085938710855900E-037
  0.38300000000000006         -5.1495014656732728E-037
  0.38600000000000007         -3.2438349415063833E-037
  0.38900000000000007          1.4074520838736681E-037
  0.39200000000000007          8.7449365095377274E-037
  0.39500000000000007          1.7287076488577620E-036
  0.39800000000000008          2.3998993596880183E-036
  0.40100000000000008          2.4629041510497454E-036
  0.40400000000000008          1.4778839921918040E-036
  0.40700000000000008         -8.3093658309916829E-037
  0.41000000000000009         -4.3525596053395317E-036
  0.41300000000000009         -8.3887984291984275E-036
  0.41600000000000009         -1.1576282253069779E-035
  0.41900000000000009         -1.2035269279555583E-035
  0.42200000000000010         -7.8165095653033056E-036
  0.42500000000000010          2.3550516949363713E-036
  0.42800000000000010          1.8158200593859462E-035
  0.43100000000000011          3.6836124595362441E-035
  0.43400000000000000          5.2814575078818255E-035
  0.43700000000000000          5.8183742133876959E-035
  0.44000000000000000          4.4349595232359604E-035
  0.44300000000000000          4.8938546408587654E-036
  0.44600000000000001         -6.0748102457172601E-035
  0.44900000000000001         -1.4369861336410488E-034
  0.45200000000000001         -2.2349782398284292E-034
  0.45500000000000002         -2.6898315337478211E-034
  0.45800000000000002         -2.4350077353431071E-034
  0.46100000000000002         -1.1493980160166038E-034
  0.46400000000000002          1.3036540186806421E-034
  0.46700000000000003          4.7267278001996352E-034
  0.47000000000000003          8.4740532473574992E-034
  0.47300000000000003          1.1430280107437784E-033
  0.47600000000000003          1.2137697605652901E-033
  0.47900000000000004          9.1057075010905991E-034
  0.48200000000000004          1.2926325533320633E-034
  0.48500000000000004         -1.1311787136384817E-033
  0.48800000000000004         -2.7142833747556030E-033
  0.49100000000000005         -4.2752140682602336E-033
  0.49400000000000005         -5.2949796902649113E-033
  0.49700000000000005         -5.1574142530904552E-033
  0.50000000000000000         -3.2954027142968268E-033
  0.50300000000000011          6.0583860350453185E-034
  0.50600000000000001          6.3840283181280093E-033
  0.50900000000000012          1.3212414730569795E-032
  0.51200000000000001          1.9524942028576703E-032
  0.51500000000000012          2.3129675337334741E-032
  0.51800000000000002          2.1564876785232196E-032
  0.52100000000000013          1.2704827587823720E-032
  0.52400000000000002         -4.4480526687904629E-033
  0.52700000000000014         -2.8931257071357920E-032
  0.53000000000000003         -5.7173974515701246E-032
  0.53300000000000014         -8.2803304930674505E-032
  0.53600000000000003         -9.7163866330939808E-032
  0.53900000000000015         -9.0723581946104912E-032
  0.54200000000000004         -5.5362773874891259E-032
  0.54500000000000015          1.2703524386740791E-032
  0.54800000000000004          1.0990248782005746E-031
  0.55100000000000016          2.2296687396015484E-031
  0.55400000000000005          3.2821967255560726E-031
  0.55700000000000016          3.9336725332309339E-031
  0.56000000000000005          3.8238971897395461E-031
  0.56299999999999994          2.6353756214188827E-031
  0.56600000000000006          1.9616894915065404E-032
  0.56899999999999995         -3.4117462538083371E-031
  0.57200000000000006         -7.7646089269907146E-031
  0.57499999999999996         -1.2060651291760440E-030
  0.57800000000000007         -1.5165890464195706E-030
  0.58099999999999996         -1.5763669074077304E-030
  0.58400000000000007         -1.2611855843552134E-030
  0.58699999999999997         -4.8864173411258092E-031
  0.59000000000000008          7.4401272732067334E-031
  0.59299999999999997          2.3264832638315706E-030
  0.59600000000000009          4.0164732159739208E-030
  0.59899999999999998          5.4453975216655077E-030
  0.60200000000000009          6.1569014546744438E-030
  0.60500000000000020          5.6816049526944275E-030
  0.60800000000000010          3.6440454769316356E-030
  0.61100000000000021         -1.1129842514901385E-031
  0.61400000000000010         -5.3972318986838949E-030
  0.61700000000000021         -1.1594261796971510E-029
  0.62000000000000011         -1.7627272734314198E-029
  0.62300000000000022         -2.2038133692763984E-029
  0.62600000000000011         -2.3173018265149356E-029
  0.62900000000000000         -1.9483587888931470E-029
  0.63200000000000012         -9.9156285776936608E-030
  0.63500000000000001          5.6706626150450806E-030
  0.63800000000000012          2.6129942715704248E-029
  0.64100000000000001          4.8810277402228534E-029
  0.64400000000000013          6.9581684005883858E-029
  0.64700000000000002          8.3195772494239136E-029
  0.65000000000000013          8.4013666915355108E-029
  0.65300000000000002          6.7073681657858770E-029
  0.65600000000000014          2.9388181977783143E-029
  0.65900000000000003         -2.8725949091848722E-029
  0.66200000000000014         -1.0254976842837650E-028
  0.66500000000000004         -1.8240518511848326E-028
  0.66800000000000015         -2.5393068448135230E-028
  0.67100000000000004         -2.9941167221319427E-028
  0.67400000000000015         -3.0023815526723735E-028
  0.67700000000000005         -2.4036302355490272E-028
  0.68000000000000016         -1.1039294191946903E-028
  0.68300000000000005          8.8302897854539575E-029
  0.68600000000000017          3.4026519727792472E-028
  0.68900000000000006          6.1430219273507064E-028
  0.69200000000000017          8.6438748938316998E-028
  0.69500000000000006          1.0337080987795559E-027
  0.69800000000000018          1.0620772977878474E-027
  0.70100000000000007          8.9632757044215020E-028
  0.70400000000000018          5.0265041565556567E-028
  0.70700000000000007         -1.2085481515596615E-028
  0.71000000000000019         -9.3369192161459113E-028
  0.71300000000000008         -1.8470928231092939E-027
  0.71600000000000019         -2.7252112721085763E-027
  0.71900000000000008         -3.3952651972068892E-027
  0.72200000000000020         -3.6674570630414519E-027
  0.72500000000000009         -3.3638971260624593E-027
  0.72800000000000020         -2.3540637108155194E-027
  0.73100000000000009         -5.9241964321572428E-028
  0.73400000000000021          1.8478425554001154E-027
  0.73700000000000010          4.7518637512490540E-027
  0.74000000000000021          7.7580243578924940E-027
  0.74300000000000010          1.0376621109044288E-026
  0.74600000000000022          1.2035745533281954E-026
  0.74900000000000011          1.2154287552632537E-026
  0.75200000000000022          1.0237285223161668E-026
  0.75500000000000012          5.9838999977085650E-027
  0.75800000000000001         -6.0624955161554445E-028
  0.76100000000000012         -9.1463945583518834E-027
  0.76400000000000001         -1.8814737541784331E-026
  0.76700000000000013         -2.8363997498258905E-026
  0.77000000000000002         -3.6201814589283461E-026
  0.77300000000000013         -4.0548519195101750E-026
  0.77600000000000002         -3.9667592099888455E-026
  0.77900000000000014         -3.2152657341301736E-026
  0.78200000000000003         -1.7240374014315726E-026
  0.78500000000000014          4.8911258989946662E-027
  0.78800000000000003          3.2888932502831749E-026
  0.79100000000000015          6.4108436693525032E-026
  0.79400000000000004          9.4661273592761324E-026
  0.79700000000000015          1.1966398978797327E-025
  0.80000000000000004          1.3370129224854945E-025
  0.80300000000000016          1.3149158163682814E-025
  0.80600000000000005          1.0870923607475014E-025
  0.80900000000000016          6.2882376728413428E-026
  0.81200000000000006         -5.7416681516020199E-027
  0.81500000000000017         -9.3498158061245508E-026
  0.81800000000000006         -1.9291530854388832E-025
  0.82100000000000017         -2.9276710566856752E-025
  0.82400000000000007         -3.7867383805302294E-025
  0.82700000000000018         -4.3430469264283898E-025
  0.83000000000000007         -4.4316745609956701E-025
  0.83300000000000018         -3.9088310988538686E-025
  0.83600000000000008         -2.6776765672590958E-025
  0.83900000000000019         -7.1424131085779118E-026
  0.84200000000000008          1.9098514893252180E-025
  0.84500000000000020          5.0118856136882267E-025
  0.84800000000000009          8.2935827376179002E-025
  0.85100000000000020          1.1351159815048998E-024
  0.85400000000000009          1.3702082092884562E-024
  0.85700000000000021          1.4829376034366003E-024
  0.86000000000000010          1.4241955913893081E-024
  0.86300000000000021          1.1546930246121626E-024
  0.86600000000000010          6.5278171730858418E-025
  0.86900000000000022         -7.8032400173536391E-026
  0.87200000000000011         -1.0029430006545352E-024
  0.87500000000000022         -2.0521655151835236E-024
  0.87800000000000011         -3.1208792563027223E-024
  0.88100000000000001         -4.0736431610376508E-024
  0.88400000000000012         -4.7539141486892921E-024
  0.88700000000000001         -4.9986743366579376E-024
  0.89000000000000012         -4.6576800903636680E-024
  0.89300000000000002         -3.6159799637652380E-024
  0.89600000000000013         -1.8177567627251837E-024
  0.89900000000000002          7.1117493776172296E-025
  0.90200000000000014          3.8453941679814584E-024
  0.90500000000000003          7.3497142595176015E-024
  0.90800000000000014          1.0880117516191954E-023
  0.91100000000000003          1.3998436938583711E-023
  0.91400000000000015          1.6202333436483664E-023
  0.91700000000000004          1.6970852920880622E-023
  0.92000000000000015          1.5823736447645176E-023
  0.92300000000000004          1.2390880916382544E-023
  0.92600000000000016          6.4858321682650202E-024
  0.92900000000000005         -1.8241878331263818E-024
  0.93200000000000016         -1.2161428582937764E-023
  0.93500000000000005         -2.3803456224420917E-023
  0.93800000000000017         -3.5681937543512646E-023
  0.94100000000000006         -4.6422087829897661E-023
  0.94400000000000017         -5.4428335261904417E-023
  0.94700000000000006         -5.8017967141495867E-023
  0.95000000000000018         -5.5597559697404939E-023
  0.95300000000000007         -4.5873780538309720E-023
  0.95600000000000018         -2.8081219016816532E-023
  0.95900000000000007         -2.2053749754161280E-024
  0.96200000000000019          3.0825687512832947E-023
  0.96500000000000008          6.9011400843303489E-023
  0.96800000000000019          1.0923967834005394E-022
  0.97100000000000009          1.4736531987001377E-022
  0.97400000000000020          1.7842595338198667E-022
  0.97700000000000009          1.9700301710648444E-022
  0.98000000000000020          1.9772538790775695E-022
  0.98300000000000010          1.7588871148504917E-022
  0.98600000000000021          1.2815294331464899E-022
  0.98900000000000010          5.3257050301450031E-023
  0.99200000000000021         -4.7320405533843862E-023
  0.99500000000000011         -1.6884807892979051E-022
  0.99800000000000022         -3.0306005106489160E-022
   1.0010000000000001         -4.3819493563803719E-022
   1.0040000000000002         -5.5942852746165015E-022
   1.0070000000000001         -6.4975108329768048E-022
   1.0100000000000000         -6.9128489544436996E-022
   1.0130000000000001         -6.6702550693384092E-022
   1.0160000000000000         -5.6289924182694177E-022
   1.0190000000000001         -3.7001292447975628E-022
   1.0220000000000000         -8.6879142454177153E-023
   1.0250000000000001          2.7861171150718325E-022
   1.0280000000000000          7.0774437806620448E-022
   1.0310000000000001          1.1703322326816809E-021
   1.0340000000000000          1.6251373757385996E-021
   1.0370000000000001          2.0215430803096889E-021
   1.0400000000000000          2.3026281434152484E-021
   1.0430000000000001          2.4096177833530374E-021
   1.0460000000000000          2.2875923809283022E-021
   1.0490000000000002          1.8921662886056080E-021
   1.0520000000000000          1.1966383108841885E-021
   1.0550000000000002          1.9903374825217969E-022
   1.0580000000000001         -1.0717478675924164E-021
   1.0610000000000002         -2.5514828579861754E-021
   1.0640000000000001         -4.1387448347108800E-021
   1.0670000000000002         -5.6963432459766451E-021
   1.0700000000000001         -7.0567325429005207E-021
   1.0730000000000002         -8.0318382285502140E-021
   1.0760000000000001         -8.4270909674504911E-021
   1.0790000000000002         -8.0595701135334721E-021
   1.0820000000000001         -6.7790964126341934E-021
   1.0850000000000002         -4.4911062894111513E-021
   1.0880000000000001         -1.1791927840683568E-021
   1.0910000000000002          3.0746994877961576E-021
   1.0940000000000001          8.0752149386277496E-021
   1.0970000000000002          1.3506052578578275E-020
