 -0.39999999999999997          0.0000000000000000     
 -0.39699999999999996          0.0000000000000000     
 -0.39399999999999996          0.0000000000000000     
 -0.39099999999999996          0.0000000000000000     
 -0.38799999999999996          0.0000000000000000     
 -0.38499999999999995          0.0000000000000000     
 -0.38199999999999995          0.0000000000000000     
 -0.37899999999999995          0.0000000000000000     
 -0.37599999999999995          0.0000000000000000     
 -0.37299999999999994          0.0000000000000000     
 -0.37000000000000000          0.0000000000000000     
 -0.36699999999999999          0.0000000000000000     
 -0.36399999999999999          0.0000000000000000     
 -0.36099999999999999          0.0000000000000000     
 -0.35799999999999998          0.0000000000000000     
 -0.35499999999999998          0.0000000000000000     
 -0.35199999999999998          0.0000000000000000     
 -0.34899999999999998          0.0000000000000000     
 -0.34599999999999997          0.0000000000000000     
 -0.34299999999999997          0.0000000000000000     
 -0.33999999999999997          0.0000000000000000     
 -0.33699999999999997          0.0000000000000000     
 -0.33399999999999996          0.0000000000000000     
 -0.33099999999999996          0.0000000000000000     
 -0.32799999999999996          0.0000000000000000     
 -0.32499999999999996          0.0000000000000000     
 -0.32199999999999995          0.0000000000000000     
 -0.31899999999999995          0.0000000000000000     
 -0.31599999999999995          0.0000000000000000     
 -0.31299999999999994          0.0000000000000000     
 -0.30999999999999994          0.0000000000000000     
 -0.30699999999999994          0.0000000000000000     
 -0.30399999999999994          0.0000000000000000     
 -0.30099999999999993          0.0000000000000000     
 -0.29799999999999993          0.0000000000000000     
 -0.29499999999999998          0.0000000000000000     
 -0.29199999999999998          0.0000000000000000     
 -0.28899999999999998          0.0000000000000000     
 -0.28599999999999998          0.0000000000000000     
 -0.28299999999999997          0.0000000000000000     
 -0.27999999999999997          0.0000000000000000     
 -0.27699999999999997          0.0000000000000000     
 -0.27399999999999997          0.0000000000000000     
 -0.27099999999999996          0.0000000000000000     
 -0.26799999999999996          0.0000000000000000     
 -0.26499999999999996          0.0000000000000000     
 -0.26199999999999996          0.0000000000000000     
 -0.25899999999999995          0.0000000000000000     
 -0.25599999999999995          0.0000000000000000     
 -0.25300000000000000          0.0000000000000000     
 -0.24999999999999997          0.0000000000000000     
 -0.24699999999999997          0.0000000000000000     
 -0.24399999999999997          0.0000000000000000     
 -0.24099999999999996          0.0000000000000000     
 -0.23799999999999996          0.0000000000000000     
 -0.23499999999999996          0.0000000000000000     
 -0.23199999999999996          0.0000000000000000     
 -0.22899999999999995          0.0000000000000000     
 -0.22599999999999995          0.0000000000000000     
 -0.22299999999999998          0.0000000000000000     
 -0.21999999999999997          0.0000000000000000     
 -0.21699999999999997          0.0000000000000000     
 -0.21399999999999997          0.0000000000000000     
 -0.21099999999999997          0.0000000000000000     
 -0.20799999999999996          0.0000000000000000     
 -0.20499999999999996          0.0000000000000000     
 -0.20199999999999996          0.0000000000000000     
 -0.19899999999999995          0.0000000000000000     
 -0.19599999999999995          0.0000000000000000     
 -0.19299999999999995          0.0000000000000000     
 -0.18999999999999997          0.0000000000000000     
 -0.18699999999999997          0.0000000000000000     
 -0.18399999999999997          0.0000000000000000     
 -0.18099999999999997          0.0000000000000000     
 -0.17799999999999996          0.0000000000000000     
 -0.17499999999999996          0.0000000000000000     
 -0.17199999999999996          0.0000000000000000     
 -0.16899999999999996          0.0000000000000000     
 -0.16599999999999995          0.0000000000000000     
 -0.16299999999999995          0.0000000000000000     
 -0.15999999999999998          0.0000000000000000     
 -0.15699999999999997          0.0000000000000000     
 -0.15399999999999997          0.0000000000000000     
 -0.15099999999999997          0.0000000000000000     
 -0.14799999999999996          0.0000000000000000     
 -0.14499999999999996          0.0000000000000000     
 -0.14199999999999996          0.0000000000000000     
 -0.13899999999999996          0.0000000000000000     
 -0.13599999999999995          0.0000000000000000     
 -0.13299999999999995          0.0000000000000000     
 -0.12999999999999995          0.0000000000000000     
 -0.12699999999999995          0.0000000000000000     
 -0.12399999999999994          0.0000000000000000     
 -0.12099999999999994          0.0000000000000000     
 -0.11799999999999994          0.0000000000000000     
 -0.11499999999999994          0.0000000000000000     
 -0.11199999999999993          0.0000000000000000     
 -0.10899999999999999          0.0000000000000000     
 -0.10599999999999998          0.0000000000000000     
 -0.10299999999999998          0.0000000000000000     
  -9.9999999999999978E-002     0.0000000000000000     
  -9.6999999999999975E-002     0.0000000000000000     
  -9.3999999999999972E-002     0.0000000000000000     
  -9.0999999999999970E-002     0.0000000000000000     
  -8.7999999999999967E-002     0.0000000000000000     
  -8.4999999999999964E-002     0.0000000000000000     
  -8.1999999999999962E-002     0.0000000000000000     
  -7.8999999999999959E-002     0.0000000000000000     
  -7.5999999999999956E-002     0.0000000000000000     
  -7.2999999999999954E-002     0.0000000000000000     
  -6.9999999999999951E-002     0.0000000000000000     
  -6.6999999999999948E-002     0.0000000000000000     
  -6.3999999999999946E-002     0.0000000000000000     
  -6.0999999999999943E-002     0.0000000000000000     
  -5.7999999999999940E-002     0.0000000000000000     
  -5.4999999999999938E-002     0.0000000000000000     
  -5.1999999999999935E-002     0.0000000000000000     
  -4.8999999999999932E-002     0.0000000000000000     
  -4.5999999999999985E-002     0.0000000000000000     
  -4.2999999999999983E-002     0.0000000000000000     
  -3.9999999999999980E-002     0.0000000000000000     
  -3.6999999999999977E-002     0.0000000000000000     
  -3.3999999999999975E-002     0.0000000000000000     
  -3.0999999999999972E-002     0.0000000000000000     
  -2.7999999999999969E-002     0.0000000000000000     
  -2.4999999999999967E-002     0.0000000000000000     
  -2.1999999999999964E-002     0.0000000000000000     
  -1.8999999999999961E-002     0.0000000000000000     
  -1.5999999999999959E-002     0.0000000000000000     
  -1.2999999999999956E-002     0.0000000000000000     
  -9.9999999999999534E-003     0.0000000000000000     
  -6.9999999999999507E-003     0.0000000000000000     
  -3.9999999999999480E-003     0.0000000000000000     
  -9.9999999999994538E-004     0.0000000000000000     
   2.0000000000000573E-003     0.0000000000000000     
   5.0000000000000600E-003     0.0000000000000000     
   8.0000000000000626E-003     0.0000000000000000     
   1.1000000000000065E-002     0.0000000000000000     
   1.4000000000000068E-002     0.0000000000000000     
   1.7000000000000015E-002     0.0000000000000000     
   2.0000000000000018E-002     0.0000000000000000     
   2.3000000000000020E-002     0.0000000000000000     
   2.6000000000000023E-002     0.0000000000000000     
   2.9000000000000026E-002     0.0000000000000000     
   3.2000000000000028E-002     0.0000000000000000     
   3.5000000000000031E-002     0.0000000000000000     
   3.8000000000000034E-002     0.0000000000000000     
   4.1000000000000036E-002     0.0000000000000000     
   4.4000000000000039E-002     0.0000000000000000     
   4.7000000000000042E-002     0.0000000000000000     
   5.0000000000000044E-002     0.0000000000000000     
   5.3000000000000047E-002     0.0000000000000000     
   5.6000000000000050E-002     0.0000000000000000     
   5.9000000000000052E-002     0.0000000000000000     
   6.2000000000000055E-002     0.0000000000000000     
   6.5000000000000058E-002     0.0000000000000000     
   6.8000000000000060E-002     0.0000000000000000     
   7.1000000000000063E-002     0.0000000000000000     
   7.4000000000000066E-002     0.0000000000000000     
   7.7000000000000068E-002     0.0000000000000000     
   8.0000000000000016E-002     0.0000000000000000     
   8.3000000000000018E-002     0.0000000000000000     
   8.6000000000000021E-002     0.0000000000000000     
   8.9000000000000024E-002     0.0000000000000000     
   9.2000000000000026E-002     0.0000000000000000     
   9.5000000000000029E-002     0.0000000000000000     
   9.8000000000000032E-002     0.0000000000000000     
  0.10100000000000003          0.0000000000000000     
  0.10400000000000004          0.0000000000000000     
  0.10700000000000004          0.0000000000000000     
  0.11000000000000004          0.0000000000000000     
  0.11300000000000004          0.0000000000000000     
  0.11600000000000005          0.0000000000000000     
  0.11900000000000005          0.0000000000000000     
  0.12200000000000005          0.0000000000000000     
  0.12500000000000006          0.0000000000000000     
  0.12800000000000006          0.0000000000000000     
  0.13100000000000006          0.0000000000000000     
  0.13400000000000006          0.0000000000000000     
  0.13700000000000007          0.0000000000000000     
  0.14000000000000007          0.0000000000000000     
  0.14300000000000007          0.0000000000000000     
  0.14600000000000007          0.0000000000000000     
  0.14900000000000008          0.0000000000000000     
  0.15200000000000008          0.0000000000000000     
  0.15500000000000008          0.0000000000000000     
  0.15800000000000008          0.0000000000000000     
  0.16100000000000009          0.0000000000000000     
  0.16400000000000009          0.0000000000000000     
  0.16700000000000009          0.0000000000000000     
  0.17000000000000010          0.0000000000000000     
  0.17300000000000010          0.0000000000000000     
  0.17600000000000010          0.0000000000000000     
  0.17899999999999999          0.0000000000000000     
  0.18200000000000000          0.0000000000000000     
  0.18500000000000000          0.0000000000000000     
  0.18800000000000000          0.0000000000000000     
  0.19100000000000000          0.0000000000000000     
  0.19400000000000001          0.0000000000000000     
  0.19700000000000001          0.0000000000000000     
  0.20000000000000001          0.0000000000000000     
  0.20300000000000001          0.0000000000000000     
  0.20600000000000002          0.0000000000000000     
  0.20900000000000002          0.0000000000000000     
  0.21200000000000002          0.0000000000000000     
  0.21500000000000002          0.0000000000000000     
  0.21800000000000003          0.0000000000000000     
  0.22100000000000003          0.0000000000000000     
  0.22400000000000003          0.0000000000000000     
  0.22700000000000004          0.0000000000000000     
  0.23000000000000004          0.0000000000000000     
  0.23300000000000004          0.0000000000000000     
  0.23600000000000004          0.0000000000000000     
  0.23900000000000005          0.0000000000000000     
  0.24200000000000005          0.0000000000000000     
  0.24500000000000005          0.0000000000000000     
  0.24800000000000005          0.0000000000000000     
  0.25100000000000006          0.0000000000000000     
  0.25400000000000006          0.0000000000000000     
  0.25700000000000006          0.0000000000000000     
  0.26000000000000006          0.0000000000000000     
  0.26300000000000007          0.0000000000000000     
  0.26600000000000007          0.0000000000000000     
  0.26900000000000007          0.0000000000000000     
  0.27200000000000008          0.0000000000000000     
  0.27500000000000008          0.0000000000000000     
  0.27800000000000008          0.0000000000000000     
  0.28100000000000008          0.0000000000000000     
  0.28400000000000009          0.0000000000000000     
  0.28700000000000009          0.0000000000000000     
  0.29000000000000009          0.0000000000000000     
  0.29300000000000009          0.0000000000000000     
  0.29600000000000010          0.0000000000000000     
  0.29900000000000010          0.0000000000000000     
  0.30200000000000010          0.0000000000000000     
  0.30499999999999999          0.0000000000000000     
  0.30800000000000000          0.0000000000000000     
  0.31100000000000000          0.0000000000000000     
  0.31400000000000000          0.0000000000000000     
  0.31700000000000000          0.0000000000000000     
  0.32000000000000001          0.0000000000000000     
  0.32300000000000001          0.0000000000000000     
  0.32600000000000001          0.0000000000000000     
  0.32900000000000001          0.0000000000000000     
  0.33200000000000002          0.0000000000000000     
  0.33500000000000002          0.0000000000000000     
  0.33800000000000002          0.0000000000000000     
  0.34100000000000003          0.0000000000000000     
  0.34400000000000003          0.0000000000000000     
  0.34700000000000003          0.0000000000000000     
  0.35000000000000003          0.0000000000000000     
  0.35300000000000004          0.0000000000000000     
  0.35600000000000004          0.0000000000000000     
  0.35900000000000004          0.0000000000000000     
  0.36200000000000004          0.0000000000000000     
  0.36500000000000005          0.0000000000000000     
  0.36800000000000005          0.0000000000000000     
  0.37100000000000005          0.0000000000000000     
  0.37400000000000005          0.0000000000000000     
  0.37700000000000006          0.0000000000000000     
  0.38000000000000006          0.0000000000000000     
  0.38300000000000006          0.0000000000000000     
  0.38600000000000007          0.0000000000000000     
  0.38900000000000007          0.0000000000000000     
  0.39200000000000007          0.0000000000000000     
  0.39500000000000007          0.0000000000000000     
  0.39800000000000008          0.0000000000000000     
  0.40100000000000008          0.0000000000000000     
  0.40400000000000008          0.0000000000000000     
  0.40700000000000008          0.0000000000000000     
  0.41000000000000009          0.0000000000000000     
  0.41300000000000009          0.0000000000000000     
  0.41600000000000009          0.0000000000000000     
  0.41900000000000009          0.0000000000000000     
  0.42200000000000010          0.0000000000000000     
  0.42500000000000010          0.0000000000000000     
  0.42800000000000010          0.0000000000000000     
  0.43100000000000011          0.0000000000000000     
  0.43400000000000000          0.0000000000000000     
  0.43700000000000000          0.0000000000000000     
  0.44000000000000000          0.0000000000000000     
  0.44300000000000000          0.0000000000000000     
  0.44600000000000001          0.0000000000000000     
  0.44900000000000001          0.0000000000000000     
  0.45200000000000001          0.0000000000000000     
  0.45500000000000002          0.0000000000000000     
  0.45800000000000002          0.0000000000000000     
  0.46100000000000002          0.0000000000000000     
  0.46400000000000002          0.0000000000000000     
  0.46700000000000003          0.0000000000000000     
  0.47000000000000003          0.0000000000000000     
  0.47300000000000003          0.0000000000000000     
  0.47600000000000003          0.0000000000000000     
  0.47900000000000004          0.0000000000000000     
  0.48200000000000004          0.0000000000000000     
  0.48500000000000004          0.0000000000000000     
  0.48800000000000004          0.0000000000000000     
  0.49100000000000005          0.0000000000000000     
  0.49400000000000005          0.0000000000000000     
  0.49700000000000005          0.0000000000000000     
  0.50000000000000000          0.0000000000000000     
  0.50300000000000011          0.0000000000000000     
  0.50600000000000001          0.0000000000000000     
  0.50900000000000012          0.0000000000000000     
  0.51200000000000001          0.0000000000000000     
  0.51500000000000012          9.0313257602209119E-043
  0.51800000000000002         -1.6961464482581468E-042
  0.52100000000000013          2.4533763542160284E-042
  0.52400000000000002          3.5084999347988096E-042
  0.52700000000000014         -6.2953325307241215E-042
  0.53000000000000003         -1.2964366587142412E-041
  0.53300000000000014         -8.3027305657922759E-041
  0.53600000000000003         -7.2099819076066574E-042
  0.53900000000000015         -1.5288280137924283E-042
  0.54200000000000004          2.7368317350581052E-041
  0.54500000000000015          2.0302327580984920E-040
  0.54800000000000004          4.6238685077142011E-040
  0.55100000000000016         -9.3444420054463106E-041
  0.55400000000000005          3.7033618327438601E-040
  0.55700000000000016          5.4035555946887528E-040
  0.56000000000000005         -1.2716454104924698E-039
  0.56299999999999994         -1.3870093559527063E-038
  0.56600000000000006         -2.0237437952543123E-038
  0.56899999999999995         -2.3265908826029980E-038
  0.57200000000000006         -2.1428768361550372E-038
  0.57499999999999996         -1.3441207390774240E-038
  0.57800000000000007          2.2459932001569731E-039
  0.58099999999999996          3.1474899296102833E-038
  0.58400000000000007          6.1814117094826519E-038
  0.58699999999999997          8.9573860121681362E-038
  0.59000000000000008          1.0543091685043588E-037
  0.59299999999999997          9.8101250957950139E-038
  0.59600000000000009          5.7975948213532983E-038
  0.59899999999999998         -1.2960102898090068E-038
  0.60200000000000009         -1.3369982190666635E-037
  0.60500000000000020         -2.6758466144650838E-037
  0.60800000000000010         -3.9310350306923090E-037
  0.61100000000000021         -4.7042314631026295E-037
  0.61400000000000010         -4.5296507767431665E-037
  0.61700000000000021         -2.9759160237873539E-037
  0.62000000000000011          2.1051195068935995E-038
  0.62300000000000022          4.9510866860492307E-037
  0.62600000000000011          1.0696703287604436E-036
  0.62900000000000000          1.6352062958968922E-036
  0.63200000000000012          2.0314673820007948E-036
  0.63500000000000001          2.0669171541419907E-036
  0.63800000000000012          1.5563067331662924E-036
  0.64100000000000001          3.7364677381082911E-037
  0.64400000000000013         -1.4864785624013045E-036
  0.64700000000000002         -3.8512303839044330E-036
  0.65000000000000013         -6.3326894301438717E-036
  0.65300000000000002         -8.3313060905376113E-036
  0.65600000000000014         -9.0958542993558117E-036
  0.65900000000000003         -7.8494473537249666E-036
  0.66200000000000014         -3.9788696888082427E-036
  0.66500000000000004          2.7337877794214287E-036
  0.66800000000000015          1.1878576129488142E-035
  0.67100000000000004          2.2242468419085279E-035
  0.67400000000000015          3.1759749176238134E-035
  0.67700000000000005          3.7654840622379196E-035
  0.68000000000000016          3.6824110334357085E-035
  0.68300000000000005          2.6462261170633030E-035
  0.68600000000000017          4.8823790347384756E-036
  0.68900000000000006         -2.7589062309092699E-035
  0.69200000000000017         -6.7829093447193825E-035
  0.69500000000000006         -1.0948334854195960E-034
  0.69800000000000018         -1.4312670653324244E-034
  0.70100000000000007         -1.5722424633492784E-034
  0.70400000000000018         -1.3999134102857292E-034
  0.70700000000000007         -8.2076958219363827E-035
  0.71000000000000019          2.0229130568669783E-035
  0.71300000000000008          1.6180432160485544E-034
  0.71600000000000019          3.2626251747161935E-034
  0.71900000000000008          4.8514795360013647E-034
  0.72200000000000020          5.9957880796789923E-034
  0.72500000000000009          6.2492429011751005E-034
  0.72800000000000020          5.1863494168451233E-034
  0.73100000000000009          2.5068221040717219E-034
  0.73400000000000021         -1.8473031080195513E-034
  0.73700000000000010         -7.5830914300687834E-034
  0.74000000000000021         -1.3984018522008113E-033
  0.74300000000000010         -1.9902749412230420E-033
  0.74600000000000022         -2.3845681300101947E-033
  0.74900000000000011         -2.4165196837189520E-033
  0.75200000000000022         -1.9358054926752578E-033
  0.75500000000000012         -8.4448957958975549E-034
  0.75800000000000001          8.6204884275198781E-034
  0.76100000000000012          3.0588671143784233E-033
  0.76400000000000001          5.4692561547414724E-033
  0.76700000000000013          7.6663802318102695E-033
  0.77000000000000002          9.1069740598924267E-033
  0.77300000000000013          9.2016162338660633E-033
  0.77600000000000002          7.4199964891806806E-033
  0.77900000000000014          3.4219424024631765E-033
  0.78200000000000003         -2.8036088891438646E-033
  0.78500000000000014         -1.0817208512330219E-032
  0.78800000000000003         -1.9655779609147685E-032
  0.79100000000000015         -2.7839313525259540E-032
  0.79400000000000004         -3.3483481872721172E-032
  0.79700000000000015         -3.4532139300227199E-032
  0.80000000000000004         -2.9104467916943673E-032
  0.80300000000000016         -1.5927335055992435E-032
  0.80600000000000005          5.2031632120248416E-033
  0.80900000000000016          3.3011021002427911E-032
  0.81200000000000006          6.4477002379035975E-032
  0.81500000000000017          9.4822421690549307E-032
  0.81800000000000006          1.1782435760615860E-031
  0.82100000000000017          1.2651138490437377E-031
  0.82400000000000007          1.1423215532950367E-031
  0.82700000000000018          7.6016583409416562E-032
  0.83000000000000007          1.0069390395971386E-032
  0.83300000000000018         -8.0839326441718239E-032
  0.83600000000000008         -1.8837673847390146E-031
  0.83900000000000019         -2.9835146493168315E-031
  0.84200000000000008         -3.9139495950627108E-031
  0.84500000000000020         -4.4480317872547323E-031
  0.84800000000000009         -4.3556765165477920E-031
  0.85100000000000020         -3.4442162367851299E-031
  0.85400000000000009         -1.6049111424337621E-031
  0.85700000000000021          1.1408979237122550E-031
  0.86000000000000010          4.6042436140628639E-031
  0.86300000000000021          8.4088131077609497E-031
  0.86600000000000010          1.1997892509802983E-030
  0.86900000000000022          1.4674793458136219E-030
  0.87200000000000011          1.5679812637439421E-030
  0.87500000000000022          1.4301401151035478E-030
  0.87800000000000011          1.0012747165249127E-030
  0.88100000000000001          2.6180936327838915E-031
  0.88400000000000012         -7.6129985543230911E-031
  0.88700000000000001         -1.9849463795401720E-030
  0.89000000000000012         -3.2667658561258576E-030
  0.89300000000000002         -4.4109453166219368E-030
  0.89600000000000013         -5.1845430533940444E-030
  0.89900000000000002         -5.3446890797416956E-030
  0.90200000000000014         -4.6753010363453081E-030
  0.90500000000000003         -3.0301278498181206E-030
  0.90800000000000014         -3.7695328703332603E-031
  0.91100000000000003          3.1637431343409209E-030
  0.91400000000000015          7.2933818523621344E-030
  0.91700000000000004          1.1530835770810310E-029
  0.92000000000000015          1.5235422870605438E-029
  0.92300000000000004          1.7661404514549614E-029
  0.92600000000000016          1.8044147318328564E-029
  0.92900000000000005          1.5713387262614786E-029
  0.93200000000000016          1.0223649970879243E-029
  0.93500000000000005          1.4866334839671003E-030
  0.93800000000000017         -1.0113965345045223E-029
  0.94100000000000006         -2.3647249980346572E-029
  0.94400000000000017         -3.7621426608442682E-029
  0.94700000000000006         -5.0050161391886057E-029
  0.95000000000000018         -5.8610744813147220E-029
  0.95300000000000007         -6.0895035223841186E-029
  0.95600000000000018         -5.4741455296742240E-029
  0.95900000000000007         -3.8621017086087479E-029
  0.96200000000000019         -1.2035974721531439E-029
  0.96500000000000008          2.4122935921097759E-029
  0.96800000000000019          6.7322816650762755E-029
  0.97100000000000009          1.1330183453041177E-028
  0.97400000000000020          1.5620518992226669E-028
  0.97700000000000009          1.8898342920533117E-028
  0.98000000000000020          2.0406536767758814E-028
  0.98300000000000010          1.9428386326182327E-028
  0.98600000000000021          1.5399176515987654E-028
  0.98900000000000010          8.0262999843214302E-029
  0.99200000000000021         -2.5963170702467150E-029
  0.99500000000000011         -1.5896677651682308E-028
  0.99800000000000022         -3.0774426964600135E-028
   1.0010000000000001         -4.5609303471719746E-028
   1.0040000000000002         -5.8342315322935668E-028
   1.0070000000000001         -6.6637668636274471E-028
   1.0100000000000000         -6.8124432059628817E-028
   1.0130000000000001         -6.0706564911701570E-028
   1.0160000000000000         -4.2917634136184058E-028
   1.0190000000000001         -1.4285018621694246E-028
   1.0220000000000000          2.4341906136513377E-028
   1.0250000000000001          7.0551762102686135E-028
   1.0280000000000000          1.2027326720451428E-027
   1.0310000000000001          1.6786884737539365E-027
   1.0340000000000000          2.0645612777961373E-027
   1.0370000000000001          2.2847527413671494E-027
   1.0400000000000000          2.2649130273842922E-027
   1.0430000000000001          1.9418936142922520E-027
   1.0460000000000000          1.2748504630377067E-027
   1.0490000000000002          2.5638389631771913E-028
   1.0520000000000000         -1.0776855143492939E-027
   1.0550000000000002         -2.6414898499765717E-027
   1.0580000000000001         -4.2968433632757565E-027
   1.0610000000000002         -5.8569740438229613E-027
   1.0640000000000001         -7.0973191871040161E-027
   1.0670000000000002         -7.7738345678637475E-027
   1.0700000000000001         -7.6484590989645690E-027
   1.0730000000000002         -6.5203898283926769E-027
   1.0760000000000001         -4.2608104724493644E-027
   1.0790000000000002         -8.4765628095323229E-028
   1.0820000000000001          3.6038131286103827E-027
   1.0850000000000002          8.8194232867315326E-027
   1.0880000000000001          1.4358377925720480E-026
   1.0910000000000002          1.9623865766813831E-026
   1.0940000000000001          2.3895309499914358E-026
   1.0970000000000002          2.6383771572333012E-026
