 -0.39999999999999997          0.0000000000000000     
 -0.39699999999999996          0.0000000000000000     
 -0.39399999999999996          0.0000000000000000     
 -0.39099999999999996          0.0000000000000000     
 -0.38799999999999996          0.0000000000000000     
 -0.38499999999999995          0.0000000000000000     
 -0.38199999999999995          0.0000000000000000     
 -0.37899999999999995          0.0000000000000000     
 -0.37599999999999995          0.0000000000000000     
 -0.37299999999999994          0.0000000000000000     
 -0.37000000000000000          0.0000000000000000     
 -0.36699999999999999          0.0000000000000000     
 -0.36399999999999999          0.0000000000000000     
 -0.36099999999999999          0.0000000000000000     
 -0.35799999999999998          0.0000000000000000     
 -0.35499999999999998          0.0000000000000000     
 -0.35199999999999998          0.0000000000000000     
 -0.34899999999999998          0.0000000000000000     
 -0.34599999999999997          0.0000000000000000     
 -0.34299999999999997          0.0000000000000000     
 -0.33999999999999997          0.0000000000000000     
 -0.33699999999999997          0.0000000000000000     
 -0.33399999999999996          0.0000000000000000     
 -0.33099999999999996          0.0000000000000000     
 -0.32799999999999996          0.0000000000000000     
 -0.32499999999999996          0.0000000000000000     
 -0.32199999999999995          0.0000000000000000     
 -0.31899999999999995          0.0000000000000000     
 -0.31599999999999995          0.0000000000000000     
 -0.31299999999999994          0.0000000000000000     
 -0.30999999999999994          0.0000000000000000     
 -0.30699999999999994          0.0000000000000000     
 -0.30399999999999994          0.0000000000000000     
 -0.30099999999999993          0.0000000000000000     
 -0.29799999999999993          0.0000000000000000     
 -0.29499999999999998          0.0000000000000000     
 -0.29199999999999998          0.0000000000000000     
 -0.28899999999999998          0.0000000000000000     
 -0.28599999999999998          0.0000000000000000     
 -0.28299999999999997          0.0000000000000000     
 -0.27999999999999997          0.0000000000000000     
 -0.27699999999999997          0.0000000000000000     
 -0.27399999999999997          0.0000000000000000     
 -0.27099999999999996          0.0000000000000000     
 -0.26799999999999996          0.0000000000000000     
 -0.26499999999999996          0.0000000000000000     
 -0.26199999999999996          0.0000000000000000     
 -0.25899999999999995          0.0000000000000000     
 -0.25599999999999995          0.0000000000000000     
 -0.25300000000000000          0.0000000000000000     
 -0.24999999999999997          0.0000000000000000     
 -0.24699999999999997          0.0000000000000000     
 -0.24399999999999997          0.0000000000000000     
 -0.24099999999999996          0.0000000000000000     
 -0.23799999999999996          0.0000000000000000     
 -0.23499999999999996          0.0000000000000000     
 -0.23199999999999996          0.0000000000000000     
 -0.22899999999999995          0.0000000000000000     
 -0.22599999999999995          0.0000000000000000     
 -0.22299999999999998          0.0000000000000000     
 -0.21999999999999997          0.0000000000000000     
 -0.21699999999999997          0.0000000000000000     
 -0.21399999999999997          0.0000000000000000     
 -0.21099999999999997          0.0000000000000000     
 -0.20799999999999996          0.0000000000000000     
 -0.20499999999999996          0.0000000000000000     
 -0.20199999999999996          0.0000000000000000     
 -0.19899999999999995          0.0000000000000000     
 -0.19599999999999995          0.0000000000000000     
 -0.19299999999999995          0.0000000000000000     
 -0.18999999999999997          0.0000000000000000     
 -0.18699999999999997          0.0000000000000000     
 -0.18399999999999997          0.0000000000000000     
 -0.18099999999999997          0.0000000000000000     
 -0.17799999999999996          0.0000000000000000     
 -0.17499999999999996          0.0000000000000000     
 -0.17199999999999996          0.0000000000000000     
 -0.16899999999999996          0.0000000000000000     
 -0.16599999999999995          0.0000000000000000     
 -0.16299999999999995          0.0000000000000000     
 -0.15999999999999998          0.0000000000000000     
 -0.15699999999999997          0.0000000000000000     
 -0.15399999999999997          0.0000000000000000     
 -0.15099999999999997          0.0000000000000000     
 -0.14799999999999996          0.0000000000000000     
 -0.14499999999999996          0.0000000000000000     
 -0.14199999999999996          0.0000000000000000     
 -0.13899999999999996          0.0000000000000000     
 -0.13599999999999995          0.0000000000000000     
 -0.13299999999999995          0.0000000000000000     
 -0.12999999999999995          0.0000000000000000     
 -0.12699999999999995          0.0000000000000000     
 -0.12399999999999994          0.0000000000000000     
 -0.12099999999999994          0.0000000000000000     
 -0.11799999999999994          0.0000000000000000     
 -0.11499999999999994          0.0000000000000000     
 -0.11199999999999993          0.0000000000000000     
 -0.10899999999999999          0.0000000000000000     
 -0.10599999999999998          0.0000000000000000     
 -0.10299999999999998          0.0000000000000000     
  -9.9999999999999978E-002     0.0000000000000000     
  -9.6999999999999975E-002     0.0000000000000000     
  -9.3999999999999972E-002     0.0000000000000000     
  -9.0999999999999970E-002     0.0000000000000000     
  -8.7999999999999967E-002     0.0000000000000000     
  -8.4999999999999964E-002     0.0000000000000000     
  -8.1999999999999962E-002     0.0000000000000000     
  -7.8999999999999959E-002     0.0000000000000000     
  -7.5999999999999956E-002     0.0000000000000000     
  -7.2999999999999954E-002     0.0000000000000000     
  -6.9999999999999951E-002     0.0000000000000000     
  -6.6999999999999948E-002     0.0000000000000000     
  -6.3999999999999946E-002     0.0000000000000000     
  -6.0999999999999943E-002     0.0000000000000000     
  -5.7999999999999940E-002     0.0000000000000000     
  -5.4999999999999938E-002     0.0000000000000000     
  -5.1999999999999935E-002     0.0000000000000000     
  -4.8999999999999932E-002     0.0000000000000000     
  -4.5999999999999985E-002     0.0000000000000000     
  -4.2999999999999983E-002     0.0000000000000000     
  -3.9999999999999980E-002     0.0000000000000000     
  -3.6999999999999977E-002     0.0000000000000000     
  -3.3999999999999975E-002     0.0000000000000000     
  -3.0999999999999972E-002     0.0000000000000000     
  -2.7999999999999969E-002     0.0000000000000000     
  -2.4999999999999967E-002     0.0000000000000000     
  -2.1999999999999964E-002     0.0000000000000000     
  -1.8999999999999961E-002     0.0000000000000000     
  -1.5999999999999959E-002     0.0000000000000000     
  -1.2999999999999956E-002     0.0000000000000000     
  -9.9999999999999534E-003     0.0000000000000000     
  -6.9999999999999507E-003     0.0000000000000000     
  -3.9999999999999480E-003     0.0000000000000000     
  -9.9999999999994538E-004     0.0000000000000000     
   2.0000000000000573E-003     0.0000000000000000     
   5.0000000000000600E-003     0.0000000000000000     
   8.0000000000000626E-003     0.0000000000000000     
   1.1000000000000065E-002     0.0000000000000000     
   1.4000000000000068E-002     0.0000000000000000     
   1.7000000000000015E-002     0.0000000000000000     
   2.0000000000000018E-002     0.0000000000000000     
   2.3000000000000020E-002     0.0000000000000000     
   2.6000000000000023E-002     0.0000000000000000     
   2.9000000000000026E-002     0.0000000000000000     
   3.2000000000000028E-002     0.0000000000000000     
   3.5000000000000031E-002     0.0000000000000000     
   3.8000000000000034E-002     0.0000000000000000     
   4.1000000000000036E-002     0.0000000000000000     
   4.4000000000000039E-002     0.0000000000000000     
   4.7000000000000042E-002     0.0000000000000000     
   5.0000000000000044E-002     0.0000000000000000     
   5.3000000000000047E-002     0.0000000000000000     
   5.6000000000000050E-002     0.0000000000000000     
   5.9000000000000052E-002     0.0000000000000000     
   6.2000000000000055E-002     0.0000000000000000     
   6.5000000000000058E-002     0.0000000000000000     
   6.8000000000000060E-002     0.0000000000000000     
   7.1000000000000063E-002     0.0000000000000000     
   7.4000000000000066E-002     0.0000000000000000     
   7.7000000000000068E-002     0.0000000000000000     
   8.0000000000000016E-002     0.0000000000000000     
   8.3000000000000018E-002     0.0000000000000000     
   8.6000000000000021E-002     0.0000000000000000     
   8.9000000000000024E-002     0.0000000000000000     
   9.2000000000000026E-002     0.0000000000000000     
   9.5000000000000029E-002     0.0000000000000000     
   9.8000000000000032E-002     0.0000000000000000     
  0.10100000000000003          0.0000000000000000     
  0.10400000000000004          0.0000000000000000     
  0.10700000000000004          0.0000000000000000     
  0.11000000000000004          0.0000000000000000     
  0.11300000000000004          0.0000000000000000     
  0.11600000000000005          0.0000000000000000     
  0.11900000000000005          0.0000000000000000     
  0.12200000000000005          0.0000000000000000     
  0.12500000000000006          0.0000000000000000     
  0.12800000000000006          0.0000000000000000     
  0.13100000000000006          0.0000000000000000     
  0.13400000000000006          0.0000000000000000     
  0.13700000000000007          0.0000000000000000     
  0.14000000000000007          0.0000000000000000     
  0.14300000000000007          0.0000000000000000     
  0.14600000000000007          0.0000000000000000     
  0.14900000000000008          0.0000000000000000     
  0.15200000000000008          0.0000000000000000     
  0.15500000000000008          0.0000000000000000     
  0.15800000000000008          0.0000000000000000     
  0.16100000000000009          0.0000000000000000     
  0.16400000000000009          0.0000000000000000     
  0.16700000000000009          0.0000000000000000     
  0.17000000000000010          0.0000000000000000     
  0.17300000000000010          0.0000000000000000     
  0.17600000000000010          0.0000000000000000     
  0.17899999999999999          0.0000000000000000     
  0.18200000000000000          0.0000000000000000     
  0.18500000000000000          0.0000000000000000     
  0.18800000000000000          0.0000000000000000     
  0.19100000000000000          0.0000000000000000     
  0.19400000000000001          0.0000000000000000     
  0.19700000000000001          0.0000000000000000     
  0.20000000000000001          0.0000000000000000     
  0.20300000000000001          0.0000000000000000     
  0.20600000000000002          0.0000000000000000     
  0.20900000000000002          0.0000000000000000     
  0.21200000000000002          0.0000000000000000     
  0.21500000000000002          0.0000000000000000     
  0.21800000000000003          0.0000000000000000     
  0.22100000000000003          0.0000000000000000     
  0.22400000000000003          0.0000000000000000     
  0.22700000000000004          0.0000000000000000     
  0.23000000000000004          0.0000000000000000     
  0.23300000000000004          0.0000000000000000     
  0.23600000000000004          0.0000000000000000     
  0.23900000000000005          0.0000000000000000     
  0.24200000000000005          0.0000000000000000     
  0.24500000000000005          0.0000000000000000     
  0.24800000000000005          0.0000000000000000     
  0.25100000000000006          0.0000000000000000     
  0.25400000000000006          0.0000000000000000     
  0.25700000000000006          0.0000000000000000     
  0.26000000000000006          0.0000000000000000     
  0.26300000000000007          0.0000000000000000     
  0.26600000000000007          0.0000000000000000     
  0.26900000000000007          0.0000000000000000     
  0.27200000000000008          0.0000000000000000     
  0.27500000000000008          0.0000000000000000     
  0.27800000000000008          0.0000000000000000     
  0.28100000000000008          0.0000000000000000     
  0.28400000000000009          0.0000000000000000     
  0.28700000000000009          0.0000000000000000     
  0.29000000000000009          0.0000000000000000     
  0.29300000000000009          0.0000000000000000     
  0.29600000000000010          0.0000000000000000     
  0.29900000000000010          0.0000000000000000     
  0.30200000000000010          0.0000000000000000     
  0.30499999999999999          0.0000000000000000     
  0.30800000000000000          0.0000000000000000     
  0.31100000000000000          0.0000000000000000     
  0.31400000000000000          0.0000000000000000     
  0.31700000000000000          0.0000000000000000     
  0.32000000000000001          0.0000000000000000     
  0.32300000000000001          0.0000000000000000     
  0.32600000000000001          0.0000000000000000     
  0.32900000000000001          0.0000000000000000     
  0.33200000000000002          0.0000000000000000     
  0.33500000000000002          0.0000000000000000     
  0.33800000000000002          0.0000000000000000     
  0.34100000000000003          0.0000000000000000     
  0.34400000000000003          0.0000000000000000     
  0.34700000000000003          0.0000000000000000     
  0.35000000000000003          0.0000000000000000     
  0.35300000000000004         -1.5414763846453447E-042
  0.35600000000000004         -2.5357593050234313E-042
  0.35900000000000004          4.4207675347274056E-042
  0.36200000000000004         -2.6251151426261888E-042
  0.36500000000000005         -8.7508441034185190E-042
  0.36800000000000005          1.2464327400572298E-041
  0.37100000000000005          1.7101598940507930E-040
  0.37400000000000005          2.9658460387487160E-040
  0.37700000000000006          3.2758994797689885E-040
  0.38000000000000006          2.4129740229913607E-040
  0.38300000000000006         -2.4510542235444104E-041
  0.38600000000000007         -3.7229563661508020E-040
  0.38900000000000007         -7.4350618809594955E-040
  0.39200000000000007         -9.4931490871021249E-040
  0.39500000000000007         -3.1553195503852781E-041
  0.39800000000000008          1.0642703840662624E-039
  0.40100000000000008          5.7295159309842664E-040
  0.40400000000000008         -1.6122993428571920E-038
  0.40700000000000008         -2.5780802110080207E-038
  0.41000000000000009         -3.0882410464102420E-038
  0.41300000000000009         -2.5956394437453540E-038
  0.41600000000000009         -3.8668422184102046E-041
  0.41900000000000009          3.1340658457225548E-038
  0.42200000000000010          8.0335066016611672E-038
  0.42500000000000010          1.2884870834272064E-037
  0.42800000000000010          1.5576060426968768E-037
  0.43100000000000011          1.3556006928386808E-037
  0.43400000000000000          4.5162289405788415E-038
  0.43700000000000000         -1.2407676594226155E-037
  0.44000000000000000         -3.5544778814784442E-037
  0.44300000000000000         -5.9605534578348103E-037
  0.44600000000000001         -7.5629110097702140E-037
  0.44900000000000001         -7.2190966931666220E-037
  0.45200000000000001         -3.8316626673432547E-037
  0.45500000000000002          3.2051233582183405E-037
  0.45800000000000002          1.3480851328988784E-036
  0.46100000000000002          2.5117030277430041E-036
  0.46400000000000002          3.4595355866972393E-036
  0.46700000000000003          3.7088498511488204E-036
  0.47000000000000003          2.7455586208972741E-036
  0.47300000000000003          1.9168183610082797E-037
  0.47600000000000003         -3.9811528564660815E-036
  0.47900000000000004         -9.2420310178528541E-036
  0.48200000000000004         -1.4370088546304765E-035
  0.48500000000000004         -1.7491101791740257E-035
  0.48800000000000004         -1.6358945499482222E-035
  0.49100000000000005         -8.9173678726499514E-036
  0.49400000000000005          5.8982385343423478E-036
  0.49700000000000005          2.7260164702765871E-035
  0.50000000000000000          5.1695418147804182E-035
  0.50300000000000011          7.2804876942502227E-035
  0.50600000000000001          8.1790264476685068E-035
  0.50900000000000012          6.9034092460852418E-035
  0.51200000000000001          2.6763527330487265E-035
  0.51500000000000012         -4.7498508281898895E-035
  0.51800000000000002         -1.4738625480047133E-034
  0.52100000000000013         -2.5510932970335373E-034
  0.52400000000000002         -3.4111591171181442E-034
  0.52700000000000014         -3.6721355721834933E-034
  0.53000000000000003         -2.9388917874106790E-034
  0.53300000000000014         -9.1658299386223593E-035
  0.53600000000000003          2.4501709328148524E-034
  0.53900000000000015          6.8415624779836131E-034
  0.54200000000000004          1.1472096678683176E-033
  0.54500000000000015          1.5093348487820956E-033
  0.54800000000000004          1.6133084726254720E-033
  0.55100000000000016          1.2994393599692319E-033
  0.55400000000000005          4.5034380772304220E-034
  0.55700000000000016         -9.5529852795094264E-034
  0.56000000000000005         -2.7910636077191988E-033
  0.56299999999999994         -4.7486209306445303E-033
  0.56600000000000006         -6.3385177239708928E-033
  0.56899999999999995         -6.9414377905822845E-033
  0.57200000000000006         -5.9184323761233402E-033
  0.57499999999999996         -2.7763268386920499E-033
  0.57800000000000007          2.6320545762173481E-033
  0.58099999999999996          9.9112459804765294E-033
  0.58400000000000007          1.7984041340121127E-032
  0.58699999999999997          2.5071577427963252E-032
  0.59000000000000008          2.8849104516550364E-032
  0.59299999999999997          2.6811869430004347E-032
  0.59600000000000009          1.6845732307208314E-032
  0.59899999999999998         -2.0578569958818275E-033
  0.60200000000000009         -2.9064263388637410E-032
  0.60500000000000020         -6.0912926629114632E-032
  0.60800000000000010         -9.1699981769235665E-032
  0.61100000000000021         -1.1323091652545031E-031
  0.61400000000000010         -1.1608821389319450E-031
  0.61700000000000021         -9.1441656682643664E-032
  0.62000000000000011         -3.3457482933943369E-032
  0.62300000000000022          5.8038340042578550E-032
  0.62600000000000011          1.7518436370171272E-031
  0.62900000000000000          3.0067784347131703E-031
  0.63200000000000012          4.0805469805324951E-031
  0.63500000000000001          4.6424679341368232E-031
  0.63800000000000012          4.3470018801871890E-031
  0.64100000000000001          2.9084880574193375E-031
  0.64400000000000013          1.9114684204560786E-032
  0.64700000000000002         -3.7005152233328150E-031
  0.65000000000000013         -8.3514094118308285E-031
  0.65300000000000002         -1.3009151258434131E-030
  0.65600000000000014         -1.6623229817979342E-030
  0.65900000000000003         -1.7965725683917602E-030
  0.66200000000000014         -1.5836775875808736E-030
  0.66500000000000004         -9.3404957171062269E-031
  0.66800000000000015          1.8035236477023050E-031
  0.67100000000000004          1.6968113839637449E-030
  0.67400000000000015          3.4415978804384698E-030
  0.67700000000000005          5.1262121393854206E-030
  0.68000000000000016          6.3667787537940917E-030
  0.68300000000000005          6.7306411072993470E-030
  0.68600000000000017          5.8098508978443837E-030
  0.68900000000000006          3.3155517358777565E-030
  0.69200000000000017         -8.1913878495649225E-031
  0.69500000000000006         -6.3460496867289336E-030
  0.69800000000000018         -1.2641111690815207E-029
  0.70100000000000007         -1.8699038532958444E-029
  0.70400000000000018         -2.3203341765699766E-029
  0.70700000000000007         -2.4682757952410286E-029
  0.71000000000000019         -2.1751715751332049E-029
  0.71300000000000008         -1.3414839696787832E-029
  0.71600000000000019          6.0330469186481690E-031
  0.71900000000000008          1.9559492285553338E-029
  0.72200000000000020          4.1492221340019625E-029
  0.72500000000000009          6.3191542866843882E-029
  0.72800000000000020          8.0398350222075324E-029
  0.73100000000000009          8.8268215870671713E-029
  0.73400000000000021          8.2095718491485334E-029
  0.73700000000000010          5.8245105591424362E-029
  0.74000000000000021          1.5178409511069264E-029
  0.74300000000000010         -4.5579263967924707E-029
  0.74600000000000022         -1.1873360512692640E-028
  0.74900000000000011         -1.9498312187268655E-028
  0.75200000000000022         -2.6143409018027497E-028
  0.75500000000000012         -3.0279184112326360E-028
  0.75800000000000001         -3.0334889613177294E-028
  0.76100000000000012         -2.4965458833926880E-028
  0.76400000000000001         -1.3359889197873417E-028
  0.76700000000000013          4.4507860729794842E-029
  0.77000000000000002          2.7339541940007973E-028
  0.77300000000000013          5.2943057034028805E-028
  0.77600000000000002          7.7692100112073985E-028
  0.77900000000000014          9.7056706879707288E-028
  0.78200000000000003          1.0602636501848235E-027
  0.78500000000000014          9.9811541072462366E-028
  0.78800000000000003          7.4712853920743345E-028
  0.79100000000000015          2.9060787106940455E-028
  0.79400000000000004         -3.5908024587004896E-028
  0.79700000000000015         -1.1539927628417853E-027
  0.80000000000000004         -2.0080163464302345E-027
  0.80300000000000016         -2.7997066115804661E-027
  0.80600000000000005         -3.3815922328334012E-027
  0.80900000000000016         -3.5962493671251914E-027
  0.81200000000000006         -3.2984549226807564E-027
  0.81500000000000017         -2.3816093756765593E-027
  0.81800000000000006         -8.0546690601053881E-028
  0.82100000000000017          1.3787378041312290E-027
  0.82400000000000007          4.0103256319511271E-027
  0.82700000000000018          6.8130250924477091E-027
  0.83000000000000007          9.4047033284270130E-027
  0.83300000000000018          1.1325753402468579E-026
  0.83600000000000008          1.2086803567381273E-026
  0.83900000000000019          1.1233818568081241E-026
  0.84200000000000008          8.4255461003440555E-027
  0.84500000000000020          3.5152468274602371E-027
  0.84800000000000009         -3.3740761721215163E-027
  0.85100000000000020         -1.1793493719746235E-026
  0.85400000000000009         -2.0944027538812054E-026
  0.85700000000000021         -2.9696366036085876E-026
  0.86000000000000010         -3.6663016088941911E-026
  0.86300000000000021         -4.0326241583498966E-026
  0.86600000000000010         -3.9218354769549072E-026
  0.86900000000000022         -3.2142678900348000E-026
  0.87200000000000011         -1.8415090557387201E-026
  0.87500000000000022          1.9018054053609698E-027
  0.87800000000000011          2.7805907669686246E-026
  0.88100000000000001          5.7241102122224949E-026
  0.88400000000000012          8.7096657447140320E-026
  0.88700000000000001          1.1334978804358549E-025
  0.89000000000000012          1.3136894827925839E-025
  0.89300000000000002          1.3637843119642456E-025
  0.89600000000000013          1.2406401774023584E-025
  0.89900000000000002          9.1275266630866898E-026
  0.90200000000000014          3.6757040608672207E-026
  0.90500000000000003         -3.8178554062243518E-026
  0.90800000000000014         -1.2914250563107042E-025
  0.91100000000000003         -2.2842894697251075E-025
  0.91400000000000015         -3.2514559762317604E-025
  0.91700000000000004         -4.0579083077792377E-025
  0.92000000000000015         -4.5531864711534132E-025
  0.92300000000000004         -4.5867814950202716E-025
  0.92600000000000016         -4.0275349266277180E-025
  0.92900000000000005         -2.7855935933031414E-025
  0.93200000000000016         -8.3479348486090483E-026
  0.93500000000000005          1.7672241730419902E-025
  0.93800000000000017          4.8642769921114266E-025
  0.94100000000000006          8.1954714797215979E-025
  0.94400000000000017          1.1400551189449342E-024
  0.94700000000000006          1.4039007071929268E-024
  0.95000000000000018          1.5624057755983811E-024
  0.95300000000000007          1.5671089561938319E-024
  0.95600000000000018          1.3758256097745347E-024
  0.95900000000000007          9.5948717145761194E-025
  0.96200000000000019          3.0913295217776721E-025
  0.96500000000000008         -5.5776794345426861E-025
  0.96800000000000019         -1.5925818360191753E-024
  0.97100000000000009         -2.7133418682775406E-024
  0.97400000000000020         -3.8060373464224063E-024
  0.97700000000000009         -4.7300780036912131E-024
  0.98000000000000020         -5.3283163333380455E-024
  0.98300000000000010         -5.4415846106307987E-024
  0.98600000000000021         -4.9271443108503859E-024
  0.98900000000000010         -3.6798552516164106E-024
  0.99200000000000021         -1.6542575124858907E-024
  0.99500000000000011          1.1147862097051624E-024
  0.99800000000000022          4.4956442251125410E-024
   1.0010000000000001          8.2506008328562619E-024
   1.0040000000000002          1.2036508418323688E-023
   1.0070000000000001          1.5417780095288915E-023
   1.0100000000000000          1.7893265204520598E-023
   1.0130000000000001          1.8937345733412089E-023
   1.0160000000000000          1.8054075439117008E-023
   1.0190000000000001          1.4841381250660450E-023
   1.0220000000000000          9.0605907056977925E-024
   1.0250000000000001          7.0473375358523157E-025
   1.0280000000000000         -9.9423433792222444E-024
   1.0310000000000001         -2.2264815635356964E-023
   1.0340000000000000         -3.5300673815894743E-023
   1.0370000000000001         -4.7762590953784272E-023
   1.0400000000000000         -5.8099885267981535E-023
   1.0430000000000001         -6.4604979545018543E-023
   1.0460000000000000         -6.5563161278940240E-023
   1.0490000000000002         -5.9439839513406374E-023
   1.0520000000000000         -4.5093979861529285E-023
   1.0550000000000002         -2.2000781241757207E-023
   1.0580000000000001          9.5382050248196703E-024
   1.0610000000000002          4.8223109155573122E-023
   1.0640000000000001          9.1649691412590901E-023
   1.0670000000000002          1.3629592594047972E-022
   1.0700000000000001          1.7762532594712935E-022
   1.0730000000000002          2.1032317672983699E-022
   1.0760000000000001          2.2867291051790983E-022
   1.0790000000000002          2.2706598631034347E-022
   1.0820000000000001          2.0062340570248391E-022
   1.0850000000000002          1.4588993914249631E-022
   1.0880000000000001          6.1546568454737116E-023
   1.0910000000000002         -5.0929937620018093E-023
   1.0940000000000001         -1.8673959019204095E-022
   1.0970000000000002         -3.3745136949772991E-022
