 -0.39999999999999997          0.0000000000000000     
 -0.39699999999999996          0.0000000000000000     
 -0.39399999999999996          0.0000000000000000     
 -0.39099999999999996          0.0000000000000000     
 -0.38799999999999996          0.0000000000000000     
 -0.38499999999999995          0.0000000000000000     
 -0.38199999999999995          0.0000000000000000     
 -0.37899999999999995          0.0000000000000000     
 -0.37599999999999995          0.0000000000000000     
 -0.37299999999999994          0.0000000000000000     
 -0.37000000000000000          0.0000000000000000     
 -0.36699999999999999          0.0000000000000000     
 -0.36399999999999999          0.0000000000000000     
 -0.36099999999999999          0.0000000000000000     
 -0.35799999999999998          0.0000000000000000     
 -0.35499999999999998          0.0000000000000000     
 -0.35199999999999998          0.0000000000000000     
 -0.34899999999999998          0.0000000000000000     
 -0.34599999999999997          0.0000000000000000     
 -0.34299999999999997          0.0000000000000000     
 -0.33999999999999997          0.0000000000000000     
 -0.33699999999999997          0.0000000000000000     
 -0.33399999999999996          0.0000000000000000     
 -0.33099999999999996          0.0000000000000000     
 -0.32799999999999996          0.0000000000000000     
 -0.32499999999999996          0.0000000000000000     
 -0.32199999999999995          0.0000000000000000     
 -0.31899999999999995          0.0000000000000000     
 -0.31599999999999995          0.0000000000000000     
 -0.31299999999999994         -1.4129237460960683E-043
 -0.30999999999999994          8.6937387292787515E-042
 -0.30699999999999994         -2.0571284215027216E-041
 -0.30399999999999994         -1.2384344252931451E-041
 -0.30099999999999993          5.3082671891721504E-040
 -0.29799999999999993         -1.6879053584376432E-038
 -0.29499999999999998          3.0414805854946317E-038
 -0.29199999999999998          6.7069511185329326E-038
 -0.28899999999999998         -4.2842559664462088E-037
 -0.28599999999999998          3.6787499553762678E-037
 -0.28299999999999997          2.6647949457211326E-036
 -0.27999999999999997         -7.5351863445790923E-036
 -0.27699999999999997         -6.7328680827188285E-036
 -0.27399999999999997          6.1312526030723991E-035
 -0.27099999999999996         -3.9337329280524305E-035
 -0.26799999999999996         -3.3291987597621185E-034
 -0.26499999999999996          6.0885331174075323E-034
 -0.26199999999999996          1.2826297893369011E-033
 -0.25899999999999995         -4.5365417531477319E-033
 -0.25599999999999995         -2.9728345872266771E-033
 -0.25300000000000000          2.5343962908909377E-032
 -0.24999999999999997         -2.6872997140109014E-033
 -0.24699999999999997         -1.1821677293249184E-031
 -0.24399999999999997          7.6407271439906419E-032
 -0.24099999999999996          4.8414089115260097E-031
 -0.23799999999999996         -5.2831751943174978E-031
 -0.23499999999999996         -1.7983340606138124E-030
 -0.23199999999999996          2.6564174031016299E-030
 -0.22899999999999995          6.2184818832604504E-030
 -0.22599999999999995         -1.1173382210881305E-029
 -0.22299999999999998         -2.0481718204291276E-029
 -0.21999999999999997          4.1226867490634133E-029
 -0.21699999999999997          6.5462286311883650E-029
 -0.21399999999999997         -1.3590845899673925E-028
 -0.21099999999999997         -2.0507725191213815E-028
 -0.20799999999999996          4.0134276541842000E-028
 -0.20499999999999996          6.2807094235898507E-028
 -0.20199999999999996         -1.0494946850349973E-027
 -0.19899999999999995         -1.8509241845348311E-027
 -0.19599999999999995          2.3521160007686933E-027
 -0.19299999999999995          5.1107320105491237E-027
 -0.18999999999999997         -4.1526274076355812E-027
 -0.18699999999999997         -1.2740171381543532E-026
 -0.18399999999999997          4.1391329028344747E-027
 -0.18099999999999997          2.7069093863889392E-026
 -0.17799999999999996          5.7927271472926443E-027
 -0.17499999999999996         -4.3168889697096359E-026
 -0.17199999999999996         -4.1739944608138495E-026
 -0.16899999999999996          2.6904076040026817E-026
 -0.16599999999999995          1.0983485616257970E-025
 -0.16299999999999995          1.2139772728058264E-025
 -0.15999999999999998         -1.1952142390416025E-025
 -0.15699999999999997         -5.5531299831899466E-025
 -0.15399999999999997         -3.1964095342382152E-025
 -0.15099999999999997          1.1970106858677965E-024
 -0.14799999999999996          2.0463268253160257E-024
 -0.14499999999999996         -8.1806646156120543E-025
 -0.14199999999999996         -5.5160381230105906E-024
 -0.13899999999999996         -4.1868824461415220E-024
 -0.13599999999999995          7.0737630587728590E-024
 -0.13299999999999995          1.7844536766804083E-023
 -0.12999999999999995          7.6301208842133835E-024
 -0.12699999999999995         -3.0710030454002444E-023
 -0.12399999999999994         -6.0440390130050230E-023
 -0.12099999999999994         -9.6247290659976539E-024
 -0.11799999999999994          1.3084477454291458E-022
 -0.11499999999999994          1.9849456025590655E-022
 -0.11199999999999993         -3.5264454097955202E-023
 -0.10899999999999999         -4.9741686751496889E-022
 -0.10599999999999998         -6.0203859651011025E-022
 -0.10299999999999998          2.6855902658526929E-022
  -9.9999999999999978E-002     1.7207562649993627E-021
  -9.6999999999999975E-002     1.8789210812460097E-021
  -9.3999999999999972E-002    -1.1103386512371740E-021
  -9.0999999999999970E-002    -5.8233781919901394E-021
  -8.7999999999999967E-002    -6.1000039090466155E-021
  -8.4999999999999964E-002     3.8694523866502544E-021
  -8.1999999999999962E-002     1.9149666317135714E-020
  -7.8999999999999959E-002     2.0183138155850582E-020
  -7.5999999999999956E-002    -1.1150433912711691E-020
  -7.2999999999999954E-002    -6.0547163955697146E-020
  -6.9999999999999951E-002    -6.8696426601004097E-020
  -6.6999999999999948E-002     2.4018225270985851E-020
  -6.3999999999999946E-002     1.8420230335783062E-019
  -6.0999999999999943E-002     2.3626702940794494E-019
  -5.7999999999999940E-002    -1.9910360648793643E-020
  -5.4999999999999938E-002    -5.2972884673015914E-019
  -5.1999999999999935E-002    -7.9791257194693929E-019
  -4.8999999999999932E-002    -1.6553836621593743E-019
  -4.5999999999999985E-002     1.3934011197704277E-018
  -4.2999999999999983E-002     2.5880810403301076E-018
  -3.9999999999999980E-002     1.3209816925759256E-018
  -3.6999999999999977E-002    -3.1588809924524445E-018
  -3.3999999999999975E-002    -7.8631908468211923E-018
  -3.0999999999999972E-002    -6.4986343555103303E-018
  -2.7999999999999969E-002     5.1776052210988222E-018
  -2.4999999999999967E-002     2.1661198680292331E-017
  -2.1999999999999964E-002     2.5692838942337445E-017
  -1.8999999999999961E-002    -2.2171158666748451E-019
  -1.5999999999999959E-002    -5.1351373496902728E-017
  -1.2999999999999956E-002    -8.6140327516357175E-017
  -9.9999999999999534E-003    -4.4883968023908130E-017
  -6.9999999999999507E-003     9.2212028664993917E-017
  -3.9999999999999480E-003     2.4463846853342415E-016
  -9.9999999999994538E-004     2.4019215109973089E-016
   2.0000000000000573E-003    -5.8866520161308182E-017
   5.0000000000000600E-003    -5.6221313360035767E-016
   8.0000000000000626E-003    -8.6029449293342730E-016
   1.1000000000000065E-002    -4.2541887369833945E-016
   1.4000000000000068E-002     8.8515880198393271E-016
   1.7000000000000015E-002     2.3461729021379056E-015
   2.0000000000000018E-002     2.4541551624687604E-015
   2.3000000000000020E-002    -5.5822284145373014E-017
   2.6000000000000023E-002    -4.6439228634764992E-015
   2.9000000000000026E-002    -8.1008887653928385E-015
   3.2000000000000028E-002    -5.8341488066219664E-015
   3.5000000000000031E-002     4.4141782660763011E-015
   3.8000000000000034E-002     1.8434991145992479E-014
   4.1000000000000036E-002     2.4906874383184041E-014
   4.4000000000000039E-002     1.1425845639971865E-014
   4.7000000000000042E-002    -2.3979526501447146E-014
   5.0000000000000044E-002    -6.3251294237700997E-014
   5.3000000000000047E-002    -7.1273366895953540E-014
   5.6000000000000050E-002    -1.7260805305401366E-014
   5.9000000000000052E-002     9.3102722661955265E-014
   6.2000000000000055E-002     1.9760333868951242E-013
   6.5000000000000058E-002     1.9607741924946667E-013
   6.8000000000000060E-002     1.5947148191051515E-014
   7.1000000000000063E-002    -3.0418822748464566E-013
   7.4000000000000066E-002    -5.7604794267079928E-013
   7.7000000000000068E-002    -5.3038941743054937E-013
   8.0000000000000016E-002     1.0170801063945668E-015
   8.3000000000000018E-002     8.7847404259556455E-013
   8.6000000000000021E-002     1.5838607867339984E-012
   8.9000000000000024E-002     1.4255155687738782E-012
   9.2000000000000026E-002     6.0332809490851848E-015
   9.5000000000000029E-002    -2.2832352516604107E-012
   9.8000000000000032E-002    -4.1270919080668514E-012
  0.10100000000000003         -3.8129768838784619E-012
  0.10400000000000004         -3.5322071078904020E-013
  0.10700000000000004          5.3624178349035213E-012
  0.11000000000000004          1.0251933816758208E-011
  0.11300000000000004          1.0213050807680703E-011
  0.11600000000000005          2.6229851934167316E-012
  0.11900000000000005         -1.1039885911479299E-011
  0.12200000000000005         -2.4271329534106514E-011
  0.12500000000000006         -2.7693113268481712E-011
  0.12800000000000006         -1.4082869657763325E-011
  0.13100000000000006          1.5942270926635831E-011
  0.13400000000000006          5.1044760903765770E-011
  0.13700000000000007          7.1903520490596293E-011
  0.14000000000000007          5.9735435161809621E-011
  0.14300000000000007          7.2911812936016513E-012
  0.14600000000000007         -7.3297047146045732E-011
  0.14900000000000008         -1.5089655598618874E-010
  0.15200000000000008         -1.8548002460991392E-010
  0.15500000000000008         -1.4450028219419927E-010
  0.15800000000000008         -1.8497579040583525E-011
  0.16100000000000009          1.7112917816650803E-010
  0.16400000000000009          3.7558971944847747E-010
  0.16700000000000009          5.3152026546252846E-010
  0.17000000000000010          5.7739134782212891E-010
  0.17300000000000010          4.6735453882792240E-010
  0.17600000000000010          1.7915327190354704E-010
  0.17899999999999999         -2.8372706014313874E-010
  0.18200000000000000         -8.9373228891600632E-010
  0.18500000000000000         -1.6037627646536614E-009
  0.18800000000000000         -2.3555327700763043E-009
  0.19100000000000000         -3.0932823930015708E-009
  0.19400000000000001         -3.7815540879778261E-009
  0.19700000000000001         -4.4215208295829194E-009
  0.20000000000000001         -5.0577540018171436E-009
  0.20300000000000001         -5.7700661342620304E-009
  0.20600000000000002         -6.6522657420304805E-009
  0.20900000000000002         -7.7874883646153614E-009
  0.21200000000000002         -9.2330681364495806E-009
  0.21500000000000002         -1.1023126396836211E-008
  0.21800000000000003         -1.3186191393250274E-008
  0.22100000000000003         -1.5766826487958997E-008
  0.22400000000000003         -1.8836391389435361E-008
  0.22700000000000004         -2.2487236690804566E-008
  0.23000000000000004         -2.6815608568922213E-008
  0.23300000000000004         -3.1907382990375392E-008
  0.23600000000000004         -3.7838540055596944E-008
  0.23900000000000005         -4.4694544239863668E-008
  0.24200000000000005         -5.2597095416363153E-008
  0.24500000000000005         -6.1723857848353222E-008
  0.24800000000000005         -7.2307946832680785E-008
  0.25100000000000006         -8.4621142939006563E-008
  0.25400000000000006         -9.8952098666150884E-008
  0.25700000000000006         -1.1559273449862342E-007
  0.26000000000000006         -1.3484223814480113E-007
  0.26300000000000007         -1.5702687808993497E-007
  0.26600000000000007         -1.8251746277895191E-007
  0.26900000000000007         -2.1173826359381114E-007
  0.27200000000000008         -2.4516342996664311E-007
  0.27500000000000008         -2.8330978786105418E-007
  0.27800000000000008         -3.2673290058806612E-007
  0.28100000000000008         -3.7603502768777851E-007
  0.28400000000000009         -4.3187974939229586E-007
  0.28700000000000009         -4.9500795641103680E-007
  0.29000000000000009         -5.6623307301878665E-007
  0.29300000000000009         -6.4643897865126045E-007
  0.29600000000000010         -7.3657581762500307E-007
  0.29900000000000010         -8.3764428041694809E-007
  0.30200000000000010         -9.5072181737340813E-007
  0.30499999999999999         -1.0769471245172543E-006
  0.30800000000000000         -1.2175308116220949E-006
  0.31100000000000000         -1.3737704620917105E-006
  0.31400000000000000         -1.5470091001540915E-006
  0.31700000000000000         -1.7386142046115436E-006
  0.32000000000000001         -1.9499945364590741E-006
  0.32300000000000001         -2.1825825756492877E-006
  0.32600000000000001         -2.4378459037601006E-006
  0.32900000000000001         -2.7172738844803837E-006
  0.33200000000000002         -3.0223724515861610E-006
  0.33500000000000002         -3.3546449237023000E-006
  0.33800000000000002         -3.7155259653289028E-006
  0.34100000000000003         -4.1064011123694876E-006
  0.34400000000000003         -4.5285602471287291E-006
  0.34700000000000003         -4.9832411872743680E-006
  0.35000000000000003         -5.4715152456766372E-006
  0.35300000000000004         -5.9942855805555098E-006
  0.35600000000000004         -6.5523577704974252E-006
  0.35900000000000004         -7.1462056997411309E-006
  0.36200000000000004         -7.7760774171536845E-006
  0.36500000000000005         -8.4418084705558686E-006
  0.36800000000000005         -9.1431039756652125E-006
  0.37100000000000005         -9.8791600314232596E-006
  0.37400000000000005         -1.0648691147792088E-005
  0.37700000000000006         -1.1450082329693083E-005
  0.38000000000000006         -1.2281241314847407E-005
  0.38300000000000006         -1.3139412571003032E-005
  0.38600000000000007         -1.4021284009922659E-005
  0.38900000000000007         -1.4923225435705828E-005
  0.39200000000000007         -1.5840663441902904E-005
  0.39500000000000007         -1.6768539433703045E-005
  0.39800000000000008         -1.7701100426461887E-005
  0.40100000000000008         -1.8632023449391795E-005
  0.40400000000000008         -1.9554153438873186E-005
  0.40700000000000008         -2.0459785213069853E-005
  0.41000000000000009         -2.1340656461035818E-005
  0.41300000000000009         -2.2187871646830553E-005
  0.41600000000000009         -2.2991692883666150E-005
  0.41900000000000009         -2.3742175310420966E-005
  0.42200000000000010         -2.4429217905623805E-005
  0.42500000000000010         -2.5041414654280485E-005
  0.42800000000000010         -2.5567335835186775E-005
  0.43100000000000011         -2.5995706398341654E-005
  0.43400000000000000         -2.6314996353044095E-005
  0.43700000000000000         -2.6513558031956877E-005
  0.44000000000000000         -2.6579918678172323E-005
  0.44300000000000000         -2.6502775371747143E-005
  0.44600000000000001         -2.6271387586152724E-005
  0.44900000000000001         -2.5875000239070786E-005
  0.45200000000000001         -2.5304153128272497E-005
  0.45500000000000002         -2.4550190349744271E-005
  0.45800000000000002         -2.3605011324705932E-005
  0.46100000000000002         -2.2462394839683128E-005
  0.46400000000000002         -2.1116787977904944E-005
  0.46700000000000003         -1.9563858374905980E-005
  0.47000000000000003         -1.7802025911711805E-005
  0.47300000000000003         -1.5830294930241358E-005
  0.47600000000000003         -1.3650435995864744E-005
  0.47900000000000004         -1.1265572107368319E-005
  0.48200000000000004         -8.6805796084593893E-006
  0.48500000000000004         -5.9035935416358582E-006
  0.48800000000000004         -2.9435387705102608E-006
  0.49100000000000005          1.8757567820393563E-007
  0.49400000000000005          3.4755600604477977E-006
  0.49700000000000005          6.9045234509803177E-006
  0.50000000000000000          1.0456729352440188E-005
  0.50300000000000011          1.4111861827311391E-005
  0.50600000000000001          1.7847583729681518E-005
  0.50900000000000012          2.1640749927785597E-005
  0.51200000000000001          2.5466179033108078E-005
  0.51500000000000012          2.9297163327042030E-005
  0.51800000000000002          3.3105781795660621E-005
  0.52100000000000013          3.6863930676629481E-005
  0.52400000000000002          4.0542547913838418E-005
  0.52700000000000014          4.4112231126401059E-005
  0.53000000000000003          4.7543183112015610E-005
  0.53300000000000014          5.0806940501876670E-005
  0.53600000000000003          5.3874604435720076E-005
  0.53900000000000015          5.6718770004568985E-005
  0.54200000000000004          5.9313700484472530E-005
  0.54500000000000015          6.1634455464384740E-005
  0.54800000000000004          6.3657905581961501E-005
  0.55100000000000016          6.5363347837850229E-005
  0.55400000000000005          6.6732752748001204E-005
  0.55700000000000016          6.7750611065700448E-005
  0.56000000000000005          6.8404228698361400E-005
  0.56299999999999994          6.8684170340252085E-005
  0.56600000000000006          6.8584001134053835E-005
  0.56899999999999995          6.8100141892358447E-005
  0.57200000000000006          6.7232583712172967E-005
  0.57499999999999996          6.5985259757541729E-005
  0.57800000000000007          6.4365465979696748E-005
  0.58099999999999996          6.2383556059029241E-005
  0.58400000000000007          6.0052755939968954E-005
  0.58699999999999997          5.7389650955352653E-005
  0.59000000000000008          5.4414113343243141E-005
  0.59299999999999997          5.1148592603351609E-005
  0.59600000000000009          4.7617433630213390E-005
  0.59899999999999998          4.3848277834045956E-005
  0.60200000000000009          3.9870594958600848E-005
  0.60500000000000020          3.5714359155126928E-005
  0.60800000000000010          3.1411649841988781E-005
  0.61100000000000021          2.6995577953750201E-005
  0.61400000000000010          2.2499617821707242E-005
  0.61700000000000021          1.7957192310013191E-005
  0.62000000000000011          1.3401940684573921E-005
  0.62300000000000022          8.8674485354441447E-006
  0.62600000000000011          4.3860379688084130E-006
  0.62900000000000000         -1.1689248303331385E-008
  0.63200000000000012         -4.2957449079916178E-006
  0.63500000000000001         -8.4377687623532524E-006
  0.63800000000000012         -1.2411809552986479E-005
  0.64100000000000001         -1.6194195441403802E-005
  0.64400000000000013         -1.9763278132316088E-005
  0.64700000000000002         -2.3099705114738208E-005
  0.65000000000000013         -2.6187647758540147E-005
  0.65300000000000002         -2.9013042904892744E-005
  0.65600000000000014         -3.1564730461588350E-005
  0.65900000000000003         -3.3835365558863993E-005
  0.66200000000000014         -3.5818820011725977E-005
  0.66500000000000004         -3.7513516892692634E-005
  0.66800000000000015         -3.8918752065275869E-005
  0.67100000000000004         -4.0037578422760613E-005
  0.67400000000000015         -4.0874750773377585E-005
  0.67700000000000005         -4.1437521345937683E-005
  0.68000000000000016         -4.1735336374704294E-005
  0.68300000000000005         -4.1779464240516669E-005
  0.68600000000000017         -4.1582608993961762E-005
  0.68900000000000006         -4.1159249109691327E-005
  0.69200000000000017         -4.0524817623391382E-005
  0.69500000000000006         -3.9695528492958874E-005
  0.69800000000000018         -3.8688801818040267E-005
  0.70100000000000007         -3.7522546701323952E-005
  0.70400000000000018         -3.6215421893994117E-005
  0.70700000000000007         -3.4785585066536085E-005
  0.71000000000000019         -3.3251133518129025E-005
  0.71300000000000008         -3.1630068904986325E-005
  0.71600000000000019         -2.9939846901786539E-005
  0.71900000000000008         -2.8197032006896165E-005
  0.72200000000000020         -2.6418429121833665E-005
  0.72500000000000009         -2.4619848849391293E-005
  0.72800000000000020         -2.2815660229374242E-005
  0.73100000000000009         -2.1019261741441448E-005
  0.73400000000000021         -1.9243428812438901E-005
  0.73700000000000010         -1.7499227164042280E-005
  0.74000000000000021         -1.5796241766307362E-005
  0.74300000000000010         -1.4143728813117326E-005
  0.74600000000000022         -1.2550106222543294E-005
  0.74900000000000011         -1.1021871315254453E-005
  0.75200000000000022         -9.5642650976994163E-006
  0.75500000000000012         -8.1822452003764153E-006
  0.75800000000000001         -6.8793123528242726E-006
  0.76100000000000012         -5.6571448330439863E-006
  0.76400000000000001         -4.5171859480361209E-006
  0.76700000000000013         -3.4608305816297354E-006
  0.77000000000000002         -2.4878661359643635E-006
  0.77300000000000013         -1.5968349221253824E-006
  0.77600000000000002         -7.8677918619069562E-007
  0.77900000000000014         -5.6147745640654828E-008
  0.78200000000000003          5.9839031781580664E-007
  0.78500000000000014          1.1801906502761564E-006
  0.78800000000000003          1.6918537021363150E-006
  0.79100000000000015          2.1366775838340529E-006
  0.79400000000000004          2.5192828456274021E-006
  0.79700000000000015          2.8432912420052717E-006
  0.80000000000000004          3.1119317254766542E-006
  0.80300000000000016          3.3296587447621576E-006
  0.80600000000000005          3.5013739322341927E-006
  0.80900000000000016          3.6304767966193525E-006
  0.81200000000000006          3.7203553124030002E-006
  0.81500000000000017          3.7756450922846742E-006
  0.81800000000000006          3.8002736966319431E-006
  0.82100000000000017          3.7968352452309372E-006
  0.82400000000000007          3.7686080304270172E-006
  0.82700000000000018          3.7197486027762113E-006
  0.83000000000000007          3.6530547724400129E-006
  0.83300000000000018          3.5704259396051152E-006
  0.83600000000000008          3.4747866092356371E-006
  0.83900000000000019          3.3692207553851246E-006
  0.84200000000000008          3.2552140346631913E-006
  0.84500000000000020          3.1342150054160555E-006
  0.84800000000000009          3.0087907391180614E-006
  0.85100000000000020          2.8808615221202755E-006
  0.85400000000000009          2.7509479639419115E-006
  0.85700000000000021          2.6201824408349951E-006
  0.86000000000000010          2.4904330700448256E-006
  0.86300000000000021          2.3624421785323669E-006
  0.86600000000000010          2.2361975509817210E-006
  0.86900000000000022          2.1127127194895475E-006
  0.87200000000000011          1.9932161932216715E-006
  0.87500000000000022          1.8776603731297288E-006
  0.87800000000000011          1.7659376232152494E-006
  0.88100000000000001          1.6589087922685758E-006
  0.88400000000000012          1.5570150192836388E-006
  0.88700000000000001          1.4595770919152847E-006
  0.89000000000000012          1.3664696453917007E-006
  0.89300000000000002          1.2784400821620823E-006
  0.89600000000000013          1.1954963985121048E-006
  0.89900000000000002          1.1169967068601954E-006
  0.90200000000000014          1.0430601773097389E-006
  0.90500000000000003          9.7403501068531557E-007
  0.90800000000000014          9.0925905118898790E-007
  0.91100000000000003          8.4804340420867660E-007
  0.91400000000000015          7.9075468204590627E-007
  0.91700000000000004          7.3764468484631183E-007
  0.92000000000000015          6.8802735514288571E-007
  0.92300000000000004          6.4151866950471716E-007
  0.92600000000000016          5.9838749321313510E-007
  0.92900000000000005          5.5831003976727263E-007
  0.93200000000000016          5.2052073343139691E-007
  0.93500000000000005          4.8512924862846565E-007
  0.93800000000000017          4.5255991772326575E-007
  0.94100000000000006          4.2231232343897979E-007
  0.94400000000000017          3.9375794831958444E-007
  0.94700000000000006          3.6708972085265823E-007
  0.95000000000000018          3.4233739338750556E-007
  0.95300000000000007          3.1889613709294089E-007
  0.95600000000000018          2.9671124404541693E-007
  0.95900000000000007          2.7626352522892742E-007
  0.96200000000000019          2.5724454183278427E-007
  0.96500000000000008          2.3896697688966514E-007
  0.96800000000000019          2.2159925136399849E-007
  0.97100000000000009          2.0543124078608036E-007
  0.97400000000000020          1.8999990422548216E-007
  0.97700000000000009          1.7514029304028298E-007
  0.98000000000000020          1.6137008214712266E-007
  0.98300000000000010          1.4854727769009112E-007
  0.98600000000000021          1.3597745278963154E-007
  0.98900000000000010          1.2385349652945728E-007
  0.99200000000000021          1.1268734592444050E-007
  0.99500000000000011          1.0205790262134866E-007
  0.99800000000000022          9.1627006026176970E-008
   1.0010000000000001          8.1975009124796683E-008
   1.0040000000000002          7.3148132428274910E-008
   1.0070000000000001          6.4367541645121244E-008
   1.0100000000000000          5.5765231215372402E-008
   1.0130000000000001          4.8113521709361691E-008
   1.0160000000000000          4.1058731145058483E-008
   1.0190000000000001          3.3991470166512927E-008
   1.0220000000000000          2.7524375587626926E-008
   1.0250000000000001          2.2016100990011893E-008
   1.0280000000000000          1.6569788000960824E-008
   1.0310000000000001          1.1048723105262508E-008
   1.0340000000000000          6.4670306916083089E-009
   1.0370000000000001          2.7072875973850572E-009
   1.0400000000000000         -1.1897860492503410E-009
   1.0430000000000001         -4.7687985682856264E-009
   1.0460000000000000         -7.2673336708618734E-009
   1.0490000000000002         -9.5448142124662595E-009
   1.0520000000000000         -1.2211989076371176E-008
   1.0550000000000002         -1.4190197044620134E-008
   1.0580000000000001         -1.5144124363291220E-008
   1.0610000000000002         -1.6276483379218647E-008
   1.0640000000000001         -1.7582290725214010E-008
   1.0670000000000002         -1.7933900286218069E-008
   1.0700000000000001         -1.7803900571606635E-008
   1.0730000000000002         -1.8277317860236382E-008
   1.0760000000000001         -1.8531533232803958E-008
   1.0790000000000002         -1.7714127393754575E-008
   1.0820000000000001         -1.6987889259352896E-008
   1.0850000000000002         -1.7009065207295112E-008
   1.0880000000000001         -1.6559835138956219E-008
   1.0910000000000002         -1.5439953975369506E-008
   1.0940000000000001         -1.4935096463428357E-008
   1.0970000000000002         -1.4815025687103426E-008
