 -0.39999999999999997          0.0000000000000000     
 -0.39699999999999996          0.0000000000000000     
 -0.39399999999999996          0.0000000000000000     
 -0.39099999999999996          0.0000000000000000     
 -0.38799999999999996          0.0000000000000000     
 -0.38499999999999995          0.0000000000000000     
 -0.38199999999999995          0.0000000000000000     
 -0.37899999999999995          0.0000000000000000     
 -0.37599999999999995          0.0000000000000000     
 -0.37299999999999994          0.0000000000000000     
 -0.37000000000000000          0.0000000000000000     
 -0.36699999999999999          0.0000000000000000     
 -0.36399999999999999          0.0000000000000000     
 -0.36099999999999999          0.0000000000000000     
 -0.35799999999999998          0.0000000000000000     
 -0.35499999999999998          0.0000000000000000     
 -0.35199999999999998          0.0000000000000000     
 -0.34899999999999998          0.0000000000000000     
 -0.34599999999999997          0.0000000000000000     
 -0.34299999999999997          0.0000000000000000     
 -0.33999999999999997          0.0000000000000000     
 -0.33699999999999997          0.0000000000000000     
 -0.33399999999999996          0.0000000000000000     
 -0.33099999999999996          0.0000000000000000     
 -0.32799999999999996         -2.4548990053477939E-040
 -0.32499999999999996          2.9757335292537649E-040
 -0.32199999999999995         -5.8546229000421086E-041
 -0.31899999999999995         -1.2886662847184662E-037
 -0.31599999999999995          5.5228849086440716E-037
 -0.31299999999999994         -3.4003706583525905E-037
 -0.30999999999999994         -5.3049971343281425E-036
 -0.30699999999999994          1.8054006226098538E-035
 -0.30399999999999994          8.6012923546822239E-036
 -0.30099999999999993         -1.8321853585071328E-034
 -0.29799999999999993          2.7339636864540519E-034
 -0.29499999999999998          1.0111435838595772E-033
 -0.29199999999999998         -3.5908010744639826E-033
 -0.28899999999999998         -2.4438871364408893E-033
 -0.28599999999999998          2.7355564273176698E-032
 -0.28299999999999997         -1.3214162637065583E-032
 -0.27999999999999997         -1.5644326652110527E-031
 -0.27699999999999997          2.0848403819467580E-031
 -0.27399999999999997          7.2980165515074156E-031
 -0.27099999999999996         -1.5988483943945556E-030
 -0.26799999999999996         -2.8929523040678939E-030
 -0.26499999999999996          9.3831458166094547E-030
 -0.26199999999999996          1.0020217345347204E-029
 -0.25899999999999995         -4.6881070954224753E-029
 -0.25599999999999995         -3.1336844932153781E-029
 -0.25300000000000000          2.0879798396221284E-028
 -0.24999999999999997          9.4099557783963951E-029
 -0.24699999999999997         -8.4906440453939340E-028
 -0.24399999999999997         -3.0223123114225795E-028
 -0.24099999999999996          3.1908021617450320E-027
 -0.23799999999999996          1.1417919020175836E-027
 -0.23499999999999996         -1.1123231279969525E-026
 -0.23199999999999996         -4.9179824948327650E-027
 -0.22899999999999995          3.5849136933396384E-026
 -0.22599999999999995          2.1573951317965650E-026
 -0.22299999999999998         -1.0570332505650651E-025
 -0.21999999999999997         -8.8681851351758771E-026
 -0.21699999999999997          2.7958213967631005E-025
 -0.21399999999999997          3.2843445565863353E-025
 -0.21099999999999997         -6.3976748030364037E-025
 -0.20799999999999996         -1.0746576287438943E-024
 -0.20499999999999996          1.1701736877024972E-024
 -0.20199999999999996          3.0524060744764573E-024
 -0.19899999999999995         -1.3005247488265157E-024
 -0.19599999999999995         -7.3166425507794311E-024
 -0.19299999999999995         -1.1069596631294610E-024
 -0.18999999999999997          1.3939343776143813E-023
 -0.18699999999999997          1.0696578068467053E-023
 -0.18399999999999997         -1.7660700840945870E-023
 -0.18099999999999997         -3.1724256266211421E-023
 -0.17799999999999996          7.5838187055590721E-025
 -0.17499999999999996          5.2387990937936097E-023
 -0.17199999999999996          6.4719753168181962E-023
 -0.16899999999999996         -1.0474145767732041E-023
 -0.16599999999999995         -1.6796252422652012E-022
 -0.16299999999999995         -2.2355718696885973E-022
 -0.15999999999999998          1.2274870778053046E-022
 -0.15699999999999997          7.0281995459204590E-022
 -0.15399999999999997          5.5462140981886509E-022
 -0.15099999999999997         -9.0333149537345587E-022
 -0.14799999999999996         -2.2315797894310059E-021
 -0.14499999999999996         -8.4538727992300324E-022
 -0.14199999999999996          3.4088530229604306E-021
 -0.13899999999999996          6.1545008907033692E-021
 -0.13599999999999995          1.4962173053566830E-021
 -0.13299999999999995         -1.0644388789905282E-020
 -0.12999999999999995         -1.8408097797533880E-020
 -0.12699999999999995         -3.7199791057430620E-021
 -0.12399999999999994          3.3887297765093551E-020
 -0.12099999999999994          5.5932610210445427E-020
 -0.11799999999999994          8.8680154821305459E-021
 -0.11499999999999994         -1.0175202017548677E-019
 -0.11199999999999993         -1.6376219231619253E-019
 -0.10899999999999999         -3.3452204679244278E-020
 -0.10599999999999998          2.7855322754018320E-019
 -0.10299999999999998          4.8114029067058388E-019
  -9.9999999999999978E-002     1.6410372961023715E-019
  -9.6999999999999975E-002    -7.1341791911482729E-019
  -9.3999999999999972E-002    -1.4045296247904487E-018
  -9.0999999999999970E-002    -7.1947060108028404E-019
  -8.7999999999999967E-002     1.6573443232784712E-018
  -8.4999999999999964E-002     3.9245986034806510E-018
  -8.1999999999999962E-002     2.8169211544751698E-018
  -7.8999999999999959E-002    -3.1826680969207626E-018
  -7.5999999999999956E-002    -1.0294095596476374E-017
  -7.2999999999999954E-002    -9.9634516405237458E-018
  -6.9999999999999951E-002     3.8691234331958171E-018
  -6.6999999999999948E-002     2.4696530715540209E-017
  -6.3999999999999946E-002     3.1459370234615713E-017
  -6.0999999999999943E-002     3.7885445911566911E-018
  -5.7999999999999940E-002    -5.1548297126851997E-017
  -5.4999999999999938E-002    -8.7874457077217773E-017
  -5.1999999999999935E-002    -4.5613128965164592E-017
  -4.8999999999999932E-002     8.4758782083505520E-017
  -4.5999999999999985E-002     2.1394770441295276E-016
  -4.2999999999999983E-002     1.8818630769172957E-016
  -3.9999999999999980E-002    -7.5006714707138036E-017
  -3.6999999999999977E-002    -4.3974721439733428E-016
  -3.3999999999999975E-002    -5.5926205775452140E-016
  -3.0999999999999972E-002    -1.3340565111332342E-016
  -2.7999999999999969E-002     7.1769019650453376E-016
  -2.4999999999999967E-002     1.3190793990083143E-015
  -2.1999999999999964E-002     8.5278459423999916E-016
  -1.8999999999999961E-002    -8.0891858296255253E-016
  -1.5999999999999959E-002    -2.5368500854966173E-015
  -1.2999999999999956E-002    -2.4619652947592567E-015
  -9.9999999999999534E-003     3.4121409873930800E-016
  -6.9999999999999507E-003     4.2206416766269313E-015
  -3.9999999999999480E-003     5.2937586933155545E-015
  -9.9999999999994538E-004     6.3943210233494943E-016
   2.0000000000000573E-003    -7.5624969149429708E-015
   5.0000000000000600E-003    -1.1215779266532230E-014
   8.0000000000000626E-003    -2.0928723653806317E-015
   1.1000000000000065E-002     1.7982160643751212E-014
   1.4000000000000068E-002     3.1486586888334577E-014
   1.7000000000000015E-002     1.4186495830081507E-014
   2.0000000000000018E-002    -4.0690152397718569E-014
   2.3000000000000020E-002    -9.9502355370931262E-014
   2.6000000000000023E-002    -9.3610188329194744E-014
   2.9000000000000026E-002     3.1142936687989288E-014
   3.2000000000000028E-002     2.4165738729870593E-013
   3.5000000000000031E-002     3.8224867440531384E-013
   3.8000000000000034E-002     2.4169296394635064E-013
   4.1000000000000036E-002    -2.7194168280322821E-013
   4.4000000000000039E-002    -9.4801047848175424E-013
   4.7000000000000042E-002    -1.2561668757351654E-012
   5.0000000000000044E-002    -6.2440307966364611E-013
   5.3000000000000047E-002     1.0554749198979615E-012
   5.6000000000000050E-002     3.0163387279461771E-012
   5.9000000000000052E-002     3.7296482655457006E-012
   6.2000000000000055E-002     1.7613531055178532E-012
   6.5000000000000058E-002    -2.9410807349360752E-012
   6.8000000000000060E-002    -8.1870097386075231E-012
   7.1000000000000063E-002    -1.0065802557076289E-011
   7.4000000000000066E-002    -5.1636530244666053E-012
   7.7000000000000068E-002     6.4471758168855480E-012
   8.0000000000000016E-002     1.9442465346046732E-011
   8.3000000000000018E-002     2.4680659765462093E-011
   8.6000000000000021E-002     1.4237790700240924E-011
   8.9000000000000024E-002    -1.2119868199294406E-011
   9.2000000000000026E-002    -4.3162514302050158E-011
   9.5000000000000029E-002    -5.8935599791301025E-011
   9.8000000000000032E-002    -4.0603423510016094E-011
  0.10100000000000003          1.6765144287980435E-011
  0.10400000000000004          9.5987342058486348E-011
  0.10700000000000004          1.6080151945966433E-010
  0.11000000000000004          1.7116080077935694E-010
  0.11300000000000004          1.0403624123765282E-010
  0.11600000000000005         -3.2072973511440147E-011
  0.11900000000000005         -1.9898049163874827E-010
  0.12200000000000005         -3.4833615268026394E-010
  0.12500000000000006         -4.4904507917111733E-010
  0.12800000000000006         -5.0643620168243014E-010
  0.13100000000000006         -5.6048632083716348E-010
  0.13400000000000006         -6.6273809624265929E-010
  0.13700000000000007         -8.4556572902198053E-010
  0.14000000000000007         -1.1036961980886357E-009
  0.14300000000000007         -1.4012996602637211E-009
  0.14600000000000007         -1.7014725332671176E-009
  0.14900000000000008         -1.9992774900144888E-009
  0.15200000000000008         -2.3355272712607917E-009
  0.15500000000000008         -2.7799980748750144E-009
  0.15800000000000008         -3.3933679080967019E-009
  0.16100000000000009         -4.1928678678605673E-009
  0.16400000000000009         -5.1459461224109156E-009
  0.16700000000000009         -6.1986446369549017E-009
  0.17000000000000010         -7.3219085035941526E-009
  0.17300000000000010         -8.5459797640246060E-009
  0.17600000000000010         -9.9600591192740678E-009
  0.17899999999999999         -1.1677534012008415E-008
  0.18200000000000000         -1.3790715349810882E-008
  0.18500000000000000         -1.6346252842185745E-008
  0.18800000000000000         -1.9356718238296492E-008
  0.19100000000000000         -2.2839409890299240E-008
  0.19400000000000001         -2.6851536671459123E-008
  0.19700000000000001         -3.1496841531679993E-008
  0.20000000000000001         -3.6898273992222979E-008
  0.20300000000000001         -4.3160267302541296E-008
  0.20600000000000002         -5.0352489421067721E-008
  0.20900000000000002         -5.8532081487701084E-008
  0.21200000000000002         -6.7792792188962916E-008
  0.21500000000000002         -7.8306557550402772E-008
  0.21800000000000003         -9.0324554716625058E-008
  0.22100000000000003         -1.0413708838035155E-007
  0.22400000000000003         -1.2001163286231805E-007
  0.22700000000000004         -1.3815941504951006E-007
  0.23000000000000004         -1.5874967645610012E-007
  0.23300000000000004         -1.8196978277148061E-007
  0.23600000000000004         -2.0808177198154042E-007
  0.23900000000000005         -2.3744658603784935E-007
  0.24200000000000005         -2.7049304337563249E-007
  0.24500000000000005         -3.0765830495839997E-007
  0.24800000000000005         -3.4934192116081398E-007
  0.25100000000000006         -3.9590746590410552E-007
  0.25400000000000006         -4.4772963858117854E-007
  0.25700000000000006         -5.0525150283651661E-007
  0.26000000000000006         -5.6901299891974417E-007
  0.26300000000000007         -6.3963400523141066E-007
  0.26600000000000007         -7.1774569849448946E-007
  0.26900000000000007         -8.0395235472550575E-007
  0.27200000000000008         -8.9881548514690985E-007
  0.27500000000000008         -1.0028811548522913E-006
  0.27800000000000008         -1.1167426643584675E-006
  0.28100000000000008         -1.2410406383776760E-006
  0.28400000000000009         -1.3764727798250159E-006
  0.28700000000000009         -1.5237245736133092E-006
  0.29000000000000009         -1.6834354465755655E-006
  0.29300000000000009         -1.8561664300531518E-006
  0.29600000000000010         -2.0424694236260701E-006
  0.29900000000000010         -2.2428661650548303E-006
  0.30200000000000010         -2.4578732588677395E-006
  0.30499999999999999         -2.6879669110214328E-006
  0.30800000000000000         -2.9335778089422201E-006
  0.31100000000000000         -3.1950069190084467E-006
  0.31400000000000000         -3.4724106980461464E-006
  0.31700000000000000         -3.7658528425392267E-006
  0.32000000000000001         -4.0753325921618293E-006
  0.32300000000000001         -4.4006812558610585E-006
  0.32600000000000001         -4.7416790430715863E-006
  0.32900000000000001         -5.0978910811071337E-006
  0.33200000000000002         -5.4687253086796564E-006
  0.33500000000000002         -5.8532715668132854E-006
  0.33800000000000002         -6.2505116276479764E-006
  0.34100000000000003         -6.6592823824619825E-006
  0.34400000000000003         -7.0781577915073856E-006
  0.34700000000000003         -7.5054565254855880E-006
  0.35000000000000003         -7.9394186874709879E-006
  0.35300000000000004         -8.3778815225440691E-006
  0.35600000000000004         -8.8184992881578720E-006
  0.35900000000000004         -9.2586927027626329E-006
  0.36200000000000004         -9.6955649130437163E-006
  0.36500000000000005         -1.0126165447571854E-005
  0.36800000000000005         -1.0547154735979786E-005
  0.37100000000000005         -1.0955145983929134E-005
  0.37400000000000005         -1.1346499780393802E-005
  0.37700000000000006         -1.1717425763746013E-005
  0.38000000000000006         -1.2063855771464872E-005
  0.38300000000000006         -1.2381823609634950E-005
  0.38600000000000007         -1.2667034853559662E-005
  0.38900000000000007         -1.2915259560619667E-005
  0.39200000000000007         -1.3122192365140709E-005
  0.39500000000000007         -1.3283819102020216E-005
  0.39800000000000008         -1.3395929134786450E-005
  0.40100000000000008         -1.3454329176836160E-005
  0.40400000000000008         -1.3455132090630416E-005
  0.40700000000000008         -1.3394801898666953E-005
  0.41000000000000009         -1.3269809220109989E-005
  0.41300000000000009         -1.3076670426188708E-005
  0.41600000000000009         -1.2812902172138189E-005
  0.41900000000000009         -1.2476079613093865E-005
  0.42200000000000010         -1.2064163318182795E-005
  0.42500000000000010         -1.1575494320154656E-005
  0.42800000000000010         -1.1009205981675866E-005
  0.43100000000000011         -1.0364777435993340E-005
  0.43400000000000000         -9.6423054208544264E-006
  0.43700000000000000         -8.8425342700781156E-006
  0.44000000000000000         -7.9668301297456965E-006
  0.44300000000000000         -7.0176665307411226E-006
  0.44600000000000001         -5.9973096231089462E-006
  0.44900000000000001         -4.9091156725139358E-006
  0.45200000000000001         -3.7572865923982402E-006
  0.45500000000000002         -2.5463325482088381E-006
  0.45800000000000002         -1.2815107277834604E-006
  0.46100000000000002          3.1186376108877919E-008
  0.46400000000000002          1.3850623310831133E-006
  0.46700000000000003          2.7735583818613488E-006
  0.47000000000000003          4.1890116711741971E-006
  0.47300000000000003          5.6239124318341779E-006
  0.47600000000000003          7.0695676255092674E-006
  0.47900000000000004          8.5177345925859197E-006
  0.48200000000000004          9.9598032287643094E-006
  0.48500000000000004          1.1386623786365503E-005
  0.48800000000000004          1.2789485923493431E-005
  0.49100000000000005          1.4159843183904116E-005
  0.49400000000000005          1.5488881058906372E-005
  0.49700000000000005          1.6767783698770193E-005
  0.50000000000000000          1.7988136625426448E-005
  0.50300000000000011          1.9142153028104217E-005
  0.50600000000000001          2.0222384588868233E-005
  0.50900000000000012          2.1221851318657512E-005
  0.51200000000000001          2.2134483319369480E-005
  0.51500000000000012          2.2954422222933568E-005
  0.51800000000000002          2.3676292237714756E-005
  0.52100000000000013          2.4295719059164588E-005
  0.52400000000000002          2.4809114339921929E-005
  0.52700000000000014          2.5213805130068329E-005
  0.53000000000000003          2.5507892384422872E-005
  0.53300000000000014          2.5690428600616945E-005
  0.53600000000000003          2.5761183989489584E-005
  0.53900000000000015          2.5720701947641053E-005
  0.54200000000000004          2.5570274684723007E-005
  0.54500000000000015          2.5312201160898307E-005
  0.54800000000000004          2.4949695419985294E-005
  0.55100000000000016          2.4486555189698142E-005
  0.55400000000000005          2.3927204408323496E-005
  0.55700000000000016          2.3276792040525816E-005
  0.56000000000000005          2.2540972177203728E-005
  0.56299999999999994          2.1725693987254121E-005
  0.56600000000000006          2.0837800219889589E-005
  0.56899999999999995          1.9884484728259482E-005
  0.57200000000000006          1.8873215825862001E-005
  0.57499999999999996          1.7811455076278597E-005
  0.57800000000000007          1.6706879446072748E-005
  0.58099999999999996          1.5567244754596820E-005
  0.58400000000000007          1.4400216711855342E-005
  0.58699999999999997          1.3213668618143145E-005
  0.59000000000000008          1.2015414860577841E-005
  0.59299999999999997          1.0812882631222358E-005
  0.59600000000000009          9.6131481604298333E-006
  0.59899999999999998          8.4230225359904168E-006
  0.60200000000000009          7.2488405214120374E-006
  0.60500000000000020          6.0967335466283950E-006
  0.60800000000000010          4.9723792536201027E-006
  0.61100000000000021          3.8812545241694441E-006
  0.61400000000000010          2.8280337068031426E-006
  0.61700000000000021          1.8166954286203581E-006
  0.62000000000000011          8.5085289652128440E-007
  0.62300000000000022         -6.6543298061778518E-008
  0.62600000000000011         -9.3295173992581459E-007
  0.62900000000000000         -1.7459432221785306E-006
  0.63200000000000012         -2.5040586579816715E-006
  0.63500000000000001         -3.2061267169357919E-006
  0.63800000000000012         -3.8516532972138083E-006
  0.64100000000000001         -4.4407998293418803E-006
  0.64400000000000013         -4.9738355715239772E-006
  0.64700000000000002         -5.4514351424330039E-006
  0.65000000000000013         -5.8745056976311667E-006
  0.65300000000000002         -6.2442885593028534E-006
  0.65600000000000014         -6.5622080150784789E-006
  0.65900000000000003         -6.8306556973022792E-006
  0.66200000000000014         -7.0518275645725769E-006
  0.66500000000000004         -7.2280939949716496E-006
  0.66800000000000015         -7.3621485806989087E-006
  0.67100000000000004         -7.4563206326115904E-006
  0.67400000000000015         -7.5130068600745700E-006
  0.67700000000000005         -7.5347891657127924E-006
  0.68000000000000016         -7.5248073991422386E-006
  0.68300000000000005         -7.4860593953537231E-006
  0.68600000000000017         -7.4213397986673435E-006
  0.68900000000000006         -7.3332719209442354E-006
  0.69200000000000017         -7.2245044676493958E-006
  0.69500000000000006         -7.0973509349062839E-006
  0.69800000000000018         -6.9537973906717542E-006
  0.70100000000000007         -6.7964054457855528E-006
  0.70400000000000018         -6.6279471512366222E-006
  0.70700000000000007         -6.4503277228305313E-006
  0.71000000000000019         -6.2653520405490127E-006
  0.71300000000000008         -6.0749362783307424E-006
  0.71600000000000019         -5.8807557528796125E-006
  0.71900000000000008         -5.6838940879093925E-006
  0.72200000000000020         -5.4855337819636438E-006
  0.72500000000000009         -5.2875534700908731E-006
  0.72800000000000020         -5.0911687026776406E-006
  0.73100000000000009         -4.8969946611246823E-006
  0.73400000000000021         -4.7057805835972958E-006
  0.73700000000000010         -4.5185495711741851E-006
  0.74000000000000021         -4.3356133050485078E-006
  0.74300000000000010         -4.1571532695710344E-006
  0.74600000000000022         -3.9839552119156957E-006
  0.74900000000000011         -3.8167224042497762E-006
  0.75200000000000022         -3.6553673624729359E-006
  0.75500000000000012         -3.4997513716581165E-006
  0.75800000000000001         -3.3502705394337265E-006
  0.76100000000000012         -3.2070895093806140E-006
  0.76400000000000001         -3.0698553739656009E-006
  0.76700000000000013         -2.9384735795709208E-006
  0.77000000000000002         -2.8133010749508056E-006
  0.77300000000000013         -2.6941604050678006E-006
  0.77600000000000002         -2.5803382880127920E-006
  0.77900000000000014         -2.4718762652864079E-006
  0.78200000000000003         -2.3690164119328916E-006
  0.78500000000000014         -2.2714345871809167E-006
  0.78800000000000003         -2.1785174014132046E-006
  0.79100000000000015         -2.0903454217649953E-006
  0.79400000000000004         -2.0069303135724075E-006
  0.79700000000000015         -1.9276031662816234E-006
  0.80000000000000004         -1.8519612143897274E-006
  0.80300000000000016         -1.7804356256530894E-006
  0.80600000000000005         -1.7129968918796304E-006
  0.80900000000000016         -1.6488799936949007E-006
  0.81200000000000006         -1.5878064917973174E-006
  0.81500000000000017         -1.5300509475716575E-006
  0.81800000000000006         -1.4753157226686050E-006
  0.82100000000000017         -1.4230307501585829E-006
  0.82400000000000007         -1.3734104037358018E-006
  0.82700000000000018         -1.3268250425929103E-006
  0.83000000000000007         -1.2826904297792550E-006
  0.83300000000000018         -1.2404300313188416E-006
  0.83600000000000008         -1.2002686829951990E-006
  0.83900000000000019         -1.1623844045956372E-006
  0.84200000000000008         -1.1263050036956901E-006
  0.84500000000000020         -1.0918297172380791E-006
  0.84800000000000009         -1.0594652396274193E-006
  0.85100000000000020         -1.0290261199843736E-006
  0.85400000000000009         -9.9977793820636958E-007
  0.85700000000000021         -9.7173224859850992E-007
  0.86000000000000010         -9.4534615000258958E-007
  0.86300000000000021         -9.2042808789918586E-007
  0.86600000000000010         -8.9647221133670439E-007
  0.86900000000000022         -8.7374827696808835E-007
  0.87200000000000011         -8.5248578545243618E-007
  0.87500000000000022         -8.3215006763279415E-007
  0.87800000000000011         -8.1236120826791392E-007
  0.88100000000000001         -7.9360291662857267E-007
  0.88400000000000012         -7.7602557259053334E-007
  0.88700000000000001         -7.5904563485948306E-007
  0.89000000000000012         -7.4252639145648596E-007
  0.89300000000000002         -7.2685338312614075E-007
  0.89600000000000013         -7.1193752358902594E-007
  0.89900000000000002         -6.9727865080344774E-007
  0.90200000000000014         -6.8301197665268377E-007
  0.90500000000000003         -6.6953576882124085E-007
  0.90800000000000014         -6.5652732609190530E-007
  0.91100000000000003         -6.4347463489089036E-007
  0.91400000000000015         -6.3063428147153074E-007
  0.91700000000000004         -6.1834311137592442E-007
  0.92000000000000015         -6.0625784780159440E-007
  0.92300000000000004         -5.9414500389811193E-007
  0.92600000000000016         -5.8235964041473406E-007
  0.92900000000000005         -5.7098303113259039E-007
  0.93200000000000016         -5.5951337742036089E-007
  0.93500000000000005         -5.4782553392887184E-007
  0.93800000000000017         -5.3641507903788463E-007
  0.94100000000000006         -5.2534562039180321E-007
  0.94400000000000017         -5.1416996907097374E-007
  0.94700000000000006         -5.0292477593569121E-007
  0.95000000000000018         -4.9204225245997623E-007
  0.95300000000000007         -4.8131859323605310E-007
  0.95600000000000018         -4.7035425677548736E-007
  0.95900000000000007         -4.5943392325619165E-007
  0.96200000000000019         -4.4898960423929082E-007
  0.96500000000000008         -4.3869639083841233E-007
  0.96800000000000019         -4.2821643165931417E-007
  0.97100000000000009         -4.1796518935616464E-007
  0.97400000000000020         -4.0821626293228092E-007
  0.97700000000000009         -3.9857199120761362E-007
  0.98000000000000020         -3.8888017811284944E-007
  0.98300000000000010         -3.7967540276127797E-007
  0.98600000000000021         -3.7099521900253617E-007
  0.98900000000000010         -3.6233015833357511E-007
  0.99200000000000021         -3.5371445031956563E-007
  0.99500000000000011         -3.4574404955637544E-007
  0.99800000000000022         -3.3829802779721364E-007
   1.0010000000000001         -3.3086791093068220E-007
   1.0040000000000002         -3.2371565666344190E-007
   1.0070000000000001         -3.1732351088294297E-007
   1.0100000000000000         -3.1128347122584170E-007
   1.0130000000000001         -3.0515759996031231E-007
   1.0160000000000000         -2.9944983369836482E-007
   1.0190000000000001         -2.9450159092006539E-007
   1.0220000000000000         -2.8973131895570770E-007
   1.0250000000000001         -2.8492032297203377E-007
   1.0280000000000000         -2.8069809021955901E-007
   1.0310000000000001         -2.7710854705135841E-007
   1.0340000000000000         -2.7341575887944454E-007
   1.0370000000000001         -2.6970125399373480E-007
   1.0400000000000000         -2.6661088581836952E-007
   1.0430000000000001         -2.6388694288367029E-007
   1.0460000000000000         -2.6088478499430337E-007
   1.0490000000000002         -2.5800015120778017E-007
   1.0520000000000000         -2.5573203052935703E-007
   1.0550000000000002         -2.5348397312363312E-007
   1.0580000000000001         -2.5080395454881821E-007
   1.0610000000000002         -2.4833237264972517E-007
   1.0640000000000001         -2.4634354177008451E-007
   1.0670000000000002         -2.4410048676817681E-007
   1.0700000000000001         -2.4146298009102762E-007
   1.0730000000000002         -2.3913239202922766E-007
   1.0760000000000001         -2.3699107737761104E-007
   1.0790000000000002         -2.3428047242353367E-007
   1.0820000000000001         -2.3128067848980063E-007
   1.0850000000000002         -2.2873461543344150E-007
   1.0880000000000001         -2.2620968669038673E-007
   1.0910000000000002         -2.2304844313476540E-007
   1.0940000000000001         -2.1975072500143824E-007
   1.0970000000000002         -2.1673214836197764E-007
