 -0.39999999999999997          0.0000000000000000     
 -0.39699999999999996          0.0000000000000000     
 -0.39399999999999996          0.0000000000000000     
 -0.39099999999999996          0.0000000000000000     
 -0.38799999999999996          0.0000000000000000     
 -0.38499999999999995          0.0000000000000000     
 -0.38199999999999995          0.0000000000000000     
 -0.37899999999999995          0.0000000000000000     
 -0.37599999999999995          0.0000000000000000     
 -0.37299999999999994          0.0000000000000000     
 -0.37000000000000000          0.0000000000000000     
 -0.36699999999999999          0.0000000000000000     
 -0.36399999999999999          0.0000000000000000     
 -0.36099999999999999          0.0000000000000000     
 -0.35799999999999998          0.0000000000000000     
 -0.35499999999999998          0.0000000000000000     
 -0.35199999999999998          0.0000000000000000     
 -0.34899999999999998          0.0000000000000000     
 -0.34599999999999997          0.0000000000000000     
 -0.34299999999999997          0.0000000000000000     
 -0.33999999999999997          0.0000000000000000     
 -0.33699999999999997          0.0000000000000000     
 -0.33399999999999996          0.0000000000000000     
 -0.33099999999999996          0.0000000000000000     
 -0.32799999999999996          0.0000000000000000     
 -0.32499999999999996          0.0000000000000000     
 -0.32199999999999995          0.0000000000000000     
 -0.31899999999999995          0.0000000000000000     
 -0.31599999999999995          0.0000000000000000     
 -0.31299999999999994          0.0000000000000000     
 -0.30999999999999994          0.0000000000000000     
 -0.30699999999999994          0.0000000000000000     
 -0.30399999999999994          0.0000000000000000     
 -0.30099999999999993          0.0000000000000000     
 -0.29799999999999993          0.0000000000000000     
 -0.29499999999999998          0.0000000000000000     
 -0.29199999999999998          0.0000000000000000     
 -0.28899999999999998          0.0000000000000000     
 -0.28599999999999998          0.0000000000000000     
 -0.28299999999999997          0.0000000000000000     
 -0.27999999999999997          0.0000000000000000     
 -0.27699999999999997          0.0000000000000000     
 -0.27399999999999997          0.0000000000000000     
 -0.27099999999999996          0.0000000000000000     
 -0.26799999999999996          0.0000000000000000     
 -0.26499999999999996          0.0000000000000000     
 -0.26199999999999996          0.0000000000000000     
 -0.25899999999999995          0.0000000000000000     
 -0.25599999999999995          0.0000000000000000     
 -0.25300000000000000          0.0000000000000000     
 -0.24999999999999997          0.0000000000000000     
 -0.24699999999999997          0.0000000000000000     
 -0.24399999999999997          0.0000000000000000     
 -0.24099999999999996          0.0000000000000000     
 -0.23799999999999996          0.0000000000000000     
 -0.23499999999999996          0.0000000000000000     
 -0.23199999999999996          0.0000000000000000     
 -0.22899999999999995          0.0000000000000000     
 -0.22599999999999995          0.0000000000000000     
 -0.22299999999999998          0.0000000000000000     
 -0.21999999999999997          0.0000000000000000     
 -0.21699999999999997          0.0000000000000000     
 -0.21399999999999997          0.0000000000000000     
 -0.21099999999999997          0.0000000000000000     
 -0.20799999999999996          0.0000000000000000     
 -0.20499999999999996          0.0000000000000000     
 -0.20199999999999996          0.0000000000000000     
 -0.19899999999999995          0.0000000000000000     
 -0.19599999999999995          0.0000000000000000     
 -0.19299999999999995          0.0000000000000000     
 -0.18999999999999997          0.0000000000000000     
 -0.18699999999999997          0.0000000000000000     
 -0.18399999999999997          0.0000000000000000     
 -0.18099999999999997          0.0000000000000000     
 -0.17799999999999996          0.0000000000000000     
 -0.17499999999999996          0.0000000000000000     
 -0.17199999999999996          0.0000000000000000     
 -0.16899999999999996          0.0000000000000000     
 -0.16599999999999995          0.0000000000000000     
 -0.16299999999999995          0.0000000000000000     
 -0.15999999999999998          0.0000000000000000     
 -0.15699999999999997          0.0000000000000000     
 -0.15399999999999997          0.0000000000000000     
 -0.15099999999999997          0.0000000000000000     
 -0.14799999999999996          0.0000000000000000     
 -0.14499999999999996          0.0000000000000000     
 -0.14199999999999996          0.0000000000000000     
 -0.13899999999999996          0.0000000000000000     
 -0.13599999999999995          0.0000000000000000     
 -0.13299999999999995          0.0000000000000000     
 -0.12999999999999995          0.0000000000000000     
 -0.12699999999999995          0.0000000000000000     
 -0.12399999999999994          0.0000000000000000     
 -0.12099999999999994          0.0000000000000000     
 -0.11799999999999994          0.0000000000000000     
 -0.11499999999999994          0.0000000000000000     
 -0.11199999999999993          0.0000000000000000     
 -0.10899999999999999          0.0000000000000000     
 -0.10599999999999998          0.0000000000000000     
 -0.10299999999999998          0.0000000000000000     
  -9.9999999999999978E-002     0.0000000000000000     
  -9.6999999999999975E-002     0.0000000000000000     
  -9.3999999999999972E-002     0.0000000000000000     
  -9.0999999999999970E-002     0.0000000000000000     
  -8.7999999999999967E-002     0.0000000000000000     
  -8.4999999999999964E-002     0.0000000000000000     
  -8.1999999999999962E-002     0.0000000000000000     
  -7.8999999999999959E-002     0.0000000000000000     
  -7.5999999999999956E-002     0.0000000000000000     
  -7.2999999999999954E-002     0.0000000000000000     
  -6.9999999999999951E-002     0.0000000000000000     
  -6.6999999999999948E-002     0.0000000000000000     
  -6.3999999999999946E-002     0.0000000000000000     
  -6.0999999999999943E-002     0.0000000000000000     
  -5.7999999999999940E-002     0.0000000000000000     
  -5.4999999999999938E-002     0.0000000000000000     
  -5.1999999999999935E-002     0.0000000000000000     
  -4.8999999999999932E-002     0.0000000000000000     
  -4.5999999999999985E-002     0.0000000000000000     
  -4.2999999999999983E-002     0.0000000000000000     
  -3.9999999999999980E-002     0.0000000000000000     
  -3.6999999999999977E-002     0.0000000000000000     
  -3.3999999999999975E-002     0.0000000000000000     
  -3.0999999999999972E-002     0.0000000000000000     
  -2.7999999999999969E-002     0.0000000000000000     
  -2.4999999999999967E-002     0.0000000000000000     
  -2.1999999999999964E-002     0.0000000000000000     
  -1.8999999999999961E-002    -4.6184743274364861E-042
  -1.5999999999999959E-002     0.0000000000000000     
  -1.2999999999999956E-002     1.4620380684201127E-041
  -9.9999999999999534E-003    -8.9168930531954185E-044
  -6.9999999999999507E-003    -5.5064724324041079E-040
  -3.9999999999999480E-003    -3.8368217604242286E-040
  -9.9999999999994538E-004     5.3549515172360287E-040
   2.0000000000000573E-003     1.9410407895899680E-039
   5.0000000000000600E-003     1.7413633542234523E-039
   8.0000000000000626E-003    -3.8384505257070976E-039
   1.1000000000000065E-002    -7.2107135173981449E-039
   1.4000000000000068E-002    -5.7446410823129490E-039
   1.7000000000000015E-002     1.2804777067810590E-038
   2.0000000000000018E-002     3.7019763695504309E-038
   2.3000000000000020E-002     3.0056078174014784E-038
   2.6000000000000023E-002    -1.9367324348733539E-038
   2.9000000000000026E-002    -1.3078252981416325E-037
   3.2000000000000028E-002    -1.8130649083865459E-037
   3.5000000000000031E-002     5.7892061492605864E-039
   3.8000000000000034E-002     4.5257050208199443E-037
   4.1000000000000036E-002     7.7404874170465041E-037
   4.4000000000000039E-002     2.5840660490495439E-037
   4.7000000000000042E-002    -1.4088973042129170E-036
   5.0000000000000044E-002    -3.0945903016796763E-036
   5.3000000000000047E-002    -2.1022900740341859E-036
   5.6000000000000050E-002     3.6097783247429090E-036
   5.9000000000000052E-002     1.1347047835981726E-035
   6.2000000000000055E-002     1.1704617225606372E-035
   6.5000000000000058E-002    -5.5825940216334926E-036
   6.8000000000000060E-002    -3.7068844812295604E-035
   7.1000000000000063E-002    -5.3451379532080731E-035
   7.4000000000000066E-002    -1.0939171155150458E-035
   7.7000000000000068E-002     1.0204546917541533E-034
   8.0000000000000016E-002     2.0844600565706327E-034
   8.3000000000000018E-002     1.4625737917349471E-034
   8.6000000000000021E-002    -2.0216221635208139E-034
   8.9000000000000024E-002    -6.9130478556819398E-034
   9.2000000000000026E-002    -8.0645338312707358E-034
   9.5000000000000029E-002     5.4973998132557219E-035
   9.8000000000000032E-002     1.8622836541168338E-033
  0.10100000000000003          3.2735949929114817E-033
  0.10400000000000004          1.9525638523506477E-033
  0.10700000000000004         -3.4565532870132847E-033
  0.11000000000000004         -1.0487609980008675E-032
  0.11300000000000004         -1.1885427401616135E-032
  0.11600000000000005          2.9128202373239212E-034
  0.11900000000000005          2.5410306375918674E-032
  0.12200000000000005          4.6093966180613232E-032
  0.12500000000000006          3.2278855080034257E-032
  0.12800000000000006         -3.5228581078317968E-032
  0.13100000000000006         -1.3079416573359959E-031
  0.13400000000000006         -1.6978745938071829E-031
  0.13700000000000007         -4.9802271464304996E-032
  0.14000000000000007          2.4804733365592471E-031
  0.14300000000000007          5.5761370469969823E-031
  0.14600000000000007          5.4067743537885069E-031
  0.14900000000000008         -9.5819927623232172E-032
  0.15200000000000008         -1.2346344278499864E-030
  0.15500000000000008         -2.1025006663673430E-030
  0.15800000000000008         -1.5136633101700393E-030
  0.16100000000000009          1.2333400899984748E-030
  0.16400000000000009          5.1910939455638328E-030
  0.16700000000000009          7.3153716422618038E-030
  0.17000000000000010          3.7917245171130496E-030
  0.17300000000000010         -6.7446968436134060E-030
  0.17600000000000010         -1.9773904719988525E-029
  0.17899999999999999         -2.4455868368413856E-029
  0.18200000000000000         -9.0071403926778214E-030
  0.18500000000000000          2.8695603986867916E-029
  0.18800000000000000          7.1238734076746897E-029
  0.19100000000000000          8.2266338135508797E-029
  0.19400000000000001          2.4960564229524541E-029
  0.19700000000000001         -1.0480473269357986E-028
  0.20000000000000001         -2.4906534097266816E-028
  0.20300000000000001         -2.9040547464927648E-028
  0.20600000000000002         -1.0755764800618715E-028
  0.20900000000000002          3.2463383664928760E-028
  0.21200000000000002          8.4138663033325640E-028
  0.21500000000000002          1.0797041351433205E-027
  0.21800000000000003          6.2089694384252557E-028
  0.22100000000000003         -7.2310945978990883E-028
  0.22400000000000003         -2.5979499452782548E-027
  0.22700000000000004         -3.9808324946943825E-027
  0.23000000000000004         -3.4517682372622624E-027
  0.23300000000000004          7.1464802294896976E-029
  0.23600000000000004          6.3410898431070091E-027
  0.23900000000000005          1.3029702220170429E-026
  0.24200000000000005          1.5864152416796052E-026
  0.24500000000000005          1.0102946467444514E-026
  0.24800000000000005         -6.7441784323626514E-027
  0.25100000000000006         -3.1866787903971510E-026
  0.25400000000000006         -5.5405863136501118E-026
  0.25700000000000006         -6.1810667179930586E-026
  0.26000000000000006         -3.5343567485977665E-026
  0.26300000000000007          3.0970274189068674E-026
  0.26600000000000007          1.2594120759777946E-025
  0.26900000000000007          2.1523423942778018E-025
  0.27200000000000008          2.4594619935592493E-025
  0.27500000000000008          1.6360663973846852E-025
  0.27800000000000008         -6.0411889206749051E-026
  0.28100000000000008         -3.9935117930208735E-025
  0.28400000000000009         -7.5286986731940840E-025
  0.28700000000000009         -9.5482649973259079E-025
  0.29000000000000009         -8.1646395476316104E-025
  0.29300000000000009         -2.0254039789478369E-025
  0.29600000000000010          8.7809691820521846E-025
  0.29900000000000010          2.2007542411700781E-024
  0.30200000000000010          3.3120025480798202E-024
  0.30499999999999999          3.6084210568723028E-024
  0.30800000000000000          2.5161123312710671E-024
  0.31100000000000000         -2.5693973481216879E-025
  0.31400000000000000         -4.4642335512837620E-024
  0.31700000000000000         -9.1589744632088638E-024
  0.32000000000000001         -1.2730856440589680E-023
  0.32300000000000001         -1.3212795423656295E-023
  0.32600000000000001         -8.8580479073071508E-024
  0.32900000000000001          1.1105368956486370E-024
  0.33200000000000002          1.5777924294866548E-023
  0.33500000000000002          3.2108241216966094E-023
  0.33800000000000002          4.5078606342963848E-023
  0.34100000000000003          4.8553763614406888E-023
  0.34400000000000003          3.6898099386887633E-023
  0.34700000000000003          7.0751457924604110E-024
  0.35000000000000003         -3.9263671579244534E-023
  0.35300000000000004         -9.4377126439826888E-023
  0.35600000000000004         -1.4441846621720261E-022
  0.35900000000000004         -1.7131982301756489E-022
  0.36200000000000004         -1.5668857004507619E-022
  0.36500000000000005         -8.7261175798169203E-023
  0.36800000000000005          3.9152196662079363E-023
  0.37100000000000005          2.0879850017218993E-022
  0.37400000000000005          3.8995156495596577E-022
  0.37700000000000006          5.3525525268757122E-022
  0.38000000000000006          5.8924668247025743E-022
  0.38300000000000006          5.0070183102786408E-022
  0.38600000000000007          2.3803936191132898E-022
  0.38900000000000007         -1.9531608500459626E-022
  0.39200000000000007         -7.4963714892842069E-022
  0.39500000000000007         -1.3258176846549283E-021
  0.39800000000000008         -1.7838190426714810E-021
  0.40100000000000008         -1.9640180971334500E-021
  0.40400000000000008         -1.7200770811506371E-021
  0.40700000000000008         -9.5881965388162434E-022
  0.41000000000000009          3.2030506016289777E-022
  0.41300000000000009          1.9954971353553215E-021
  0.41600000000000009          3.8121722145183871E-021
  0.41900000000000009          5.3995294032162614E-021
  0.42200000000000010          6.3179227110162273E-021
  0.42500000000000010          6.1349235107122696E-021
  0.42800000000000010          4.5215388213841218E-021
  0.43100000000000011          1.3535642300708322E-021
  0.43400000000000000         -3.2016553318468130E-021
  0.43700000000000000         -8.6346156029488689E-021
  0.44000000000000000         -1.4098332944305518E-020
  0.44300000000000000         -1.8481636075731913E-020
  0.44600000000000001         -2.0553911537305505E-020
  0.44900000000000001         -1.9171390750956466E-020
  0.45200000000000001         -1.3521335917228462E-020
  0.45500000000000002         -3.3683443931560056E-021
  0.45800000000000002          1.0741199839521427E-020
  0.46100000000000002          2.7363643953498365E-020
  0.46400000000000002          4.4173201100443095E-020
  0.46700000000000003          5.8135905035007498E-020
  0.47000000000000003          6.5851734574148045E-020
  0.47300000000000003          6.4046832251789088E-020
  0.47600000000000003          5.0170654435626918E-020
  0.47900000000000004          2.3025216871755788E-020
  0.48200000000000004         -1.6667227083725600E-020
  0.48500000000000004         -6.5863002340067720E-020
  0.48800000000000004         -1.1906766424689803E-019
  0.49100000000000005         -1.6856281977471018E-019
  0.49400000000000005         -2.0504178407839063E-019
  0.49700000000000005         -2.1865913834371718E-019
  0.50000000000000000         -2.0043700115066584E-019
  0.50300000000000011         -1.4390110350306748E-019
  0.50600000000000001         -4.6767941747158255E-020
  0.50900000000000012          8.7562811748658218E-020
  0.51200000000000001          2.4897616608861979E-019
  0.51500000000000012          4.2033841801438010E-019
  0.51800000000000002          5.7815319933040608E-019
  0.52100000000000013          6.9432714797354036E-019
  0.52400000000000002          7.3907205705121932E-019
  0.52700000000000014          6.8482386836839593E-019
  0.53000000000000003          5.1087038045302925E-019
  0.53300000000000014          2.0821785063745075E-019
  0.53600000000000003         -2.1592259090776650E-019
  0.53900000000000015         -7.3477722854552047E-019
  0.54200000000000004         -1.3005129597910150E-018
  0.54500000000000015         -1.8453004903204543E-018
  0.54800000000000004         -2.2854246815085394E-018
  0.55100000000000016         -2.5286699511751239E-018
  0.55400000000000005         -2.4847776433364739E-018
  0.55700000000000016         -2.0783266616961733E-018
  0.56000000000000005         -1.2629610834799495E-018
  0.56299999999999994         -3.5333808902621589E-020
  0.56600000000000006          1.5530788596318611E-018
  0.56899999999999995          3.3884422508231191E-018
  0.57200000000000006          5.2932163537315874E-018
  0.57499999999999996          7.0328553264999739E-018
  0.57800000000000007          8.3314398658514135E-018
  0.58099999999999996          8.8966261464061196E-018
  0.58400000000000007          8.4528121969138896E-018
  0.58699999999999997          6.7805303453059573E-018
  0.59000000000000008          3.7584980973584811E-018
  0.59299999999999997         -5.9609455109527545E-019
  0.59600000000000009         -6.0944737794827114E-018
  0.59899999999999998         -1.2355994246262069E-017
  0.60200000000000009         -1.8806164570172441E-017
  0.60500000000000020         -2.4697612985781807E-017
  0.60800000000000010         -2.9156843979196181E-017
  0.61100000000000021         -3.1257132976976839E-017
  0.61400000000000010         -3.0115501070735359E-017
  0.61700000000000021         -2.5007998394029387E-017
  0.62000000000000011         -1.5494020638868804E-017
  0.62300000000000022         -1.5381252611677250E-018
  0.62600000000000011          1.6385763397355419E-017
  0.62900000000000000          3.7223037650705916E-017
  0.63200000000000012          5.9315829063459903E-017
  0.63500000000000001          8.0443362022116105E-017
  0.63800000000000012          9.7933530735016601E-017
  0.64100000000000001          1.0885244758721423E-016
  0.64400000000000013          1.1026634447987098E-016
  0.64700000000000002          9.9566138653611207E-017
  0.65000000000000013          7.4831682731390288E-017
  0.65300000000000002          3.5208282746680599E-017
  0.65600000000000014         -1.8745221721673833E-017
  0.65900000000000003         -8.4776937987088357E-017
  0.66200000000000014         -1.5877733364441723E-016
  0.66500000000000004         -2.3477341053106742E-016
  0.66800000000000015         -3.0511591215503725E-016
  0.67100000000000004         -3.6088541778341245E-016
  0.67400000000000015         -3.9251971941201648E-016
  0.67700000000000005         -3.9065569531247166E-016
  0.68000000000000016         -3.4713752801018431E-016
  0.68300000000000005         -2.5613570260203471E-016
  0.68600000000000017         -1.1528108785364647E-016
  0.68900000000000006          7.3292412280545319E-017
  0.69200000000000017          3.0211423702751577E-016
  0.69500000000000006          5.5788684868250571E-016
  0.69800000000000018          8.2146899574943344E-016
  0.70100000000000007          1.0684117298077617E-015
  0.70400000000000018          1.2701336921958130E-015
  0.70700000000000007          1.3957604033008646E-015
  0.71000000000000019          1.4145894746607595E-015
  0.71300000000000008          1.2990650621769077E-015
  0.71600000000000019          1.0281301869278910E-015
  0.71900000000000008          5.9068107172041883E-016
  0.72200000000000020         -1.1141934467535816E-017
  0.72500000000000009         -7.5920742833099735E-016
  0.72800000000000020         -1.6174893373247318E-015
  0.73100000000000009         -2.5314417917588463E-015
  0.73400000000000021         -3.4288741931049929E-015
  0.73700000000000010         -4.2226871549287664E-015
  0.74000000000000021         -4.8154615692593922E-015
  0.74300000000000010         -5.1060001837143884E-015
  0.74600000000000022         -4.9975591256339839E-015
  0.74900000000000011         -4.4074611219875475E-015
  0.75200000000000022         -3.2774625988277055E-015
  0.75500000000000012         -1.5841898923152249E-015
  0.75800000000000001          6.5132386739489158E-016
  0.76100000000000012          3.3558754069089078E-015
  0.76400000000000001          6.3992144758891134E-015
  0.76700000000000013          9.5930827106411376E-015
  0.77000000000000002          1.2694919154324835E-014
  0.77300000000000013          1.5416874995355250E-014
  0.77600000000000002          1.7440496789136696E-014
  0.77900000000000014          1.8437003297170843E-014
  0.78200000000000003          1.8092479456024536E-014
  0.78500000000000014          1.6136958878129503E-014
  0.78800000000000003          1.2375705751536546E-014
  0.79100000000000015          6.7208902290378400E-015
  0.79400000000000004         -7.7927214658180037E-016
  0.79700000000000015         -9.9162778750407422E-015
  0.80000000000000004         -2.0305274252973918E-014
  0.80300000000000016         -3.1379336431024259E-014
  0.80600000000000005         -4.2397663880397698E-014
  0.80900000000000016         -5.2468320781134412E-014
  0.81200000000000006         -6.0587407377649390E-014
  0.81500000000000017         -6.5694688748459903E-014
  0.81800000000000006         -6.6744233129168454E-014
  0.82100000000000017         -6.2787205754083847E-014
  0.82400000000000007         -5.3064228002347460E-014
  0.82700000000000018         -3.7100204427027027E-014
  0.83000000000000007         -1.4796338333405145E-014
  0.83300000000000018          1.3487716551462034E-014
  0.83600000000000008          4.6870983975697776E-014
  0.83900000000000019          8.3913843664137681E-014
  0.84200000000000008          1.2261542783963127E-013
  0.84500000000000020          1.6044933050850264E-013
  0.84800000000000009          1.9444561325596443E-013
  0.85100000000000020          2.2131890056915987E-013
  0.85400000000000009          2.3764256360621851E-013
  0.85700000000000021          2.4006391177352209E-013
  0.86000000000000010          2.2555606376096379E-013
  0.86300000000000021          1.9168997985923189E-013
  0.86600000000000010          1.3691654443810611E-013
  0.86900000000000022          6.0838393452660380E-014
  0.87200000000000011         -3.5549021882577357E-014
  0.87500000000000022         -1.4966310813072444E-013
  0.87800000000000011         -2.7721846854382965E-013
  0.88100000000000001         -4.1219816429302030E-013
  0.88400000000000012         -5.4693854841146957E-013
  0.88700000000000001         -6.7233131350819622E-013
  0.89000000000000012         -7.7816517256288635E-013
  0.89300000000000002         -8.5358224713852535E-013
  0.89600000000000013         -8.8766662142501149E-013
  0.89900000000000002         -8.7012826569737523E-013
  0.90200000000000014         -7.9206791610391848E-013
  0.90500000000000003         -6.4677380285664942E-013
  0.90800000000000014         -4.3051933594313258E-013
  0.91100000000000003         -1.4331284501100943E-013
  0.91400000000000015          2.1049095700553194E-013
  0.91700000000000004          6.2170622283566822E-013
  0.92000000000000015          1.0760848604971720E-012
  0.92300000000000004          1.5543505394220392E-012
  0.92600000000000016          2.0325327732980597E-012
  0.92900000000000005          2.4826555086150567E-012
  0.93200000000000016          2.8737929330590289E-012
  0.93500000000000005          3.1734543046194168E-012
  0.93800000000000017          3.3493193239614276E-012
  0.94100000000000006          3.3712470997597413E-012
  0.94400000000000017          3.2134995870843960E-012
  0.94700000000000006          2.8570655595749059E-012
  0.95000000000000018          2.2920639480775039E-012
  0.95300000000000007          1.5199514534902484E-012
  0.95600000000000018          5.5559063754961329E-013
  0.95900000000000007         -5.7121048969292187E-013
  0.96200000000000019         -1.8144869747168826E-012
  0.96500000000000008         -3.1117229898227095E-012
  0.96800000000000019         -4.3840702547934592E-012
  0.97100000000000009         -5.5375725198024943E-012
  0.97400000000000020         -6.4650712689325433E-012
  0.97700000000000009         -7.0492488311538887E-012
  0.98000000000000020         -7.1664217846839055E-012
  0.98300000000000010         -6.6912408842398172E-012
  0.98600000000000021         -5.5020732811361842E-012
  0.98900000000000010         -3.4869877053749879E-012
  0.99200000000000021         -5.5019156401639876E-013
  0.99500000000000011          3.3814316901347740E-012
  0.99800000000000022          8.3516927760392566E-012
   1.0010000000000001          1.4368788987008652E-011
   1.0040000000000002          2.1399540728013517E-011
   1.0070000000000001          2.9364205103347041E-011
   1.0100000000000000          3.8132090639142755E-011
   1.0130000000000001          4.7518336998978701E-011
   1.0160000000000000          5.7281501721591824E-011
   1.0190000000000001          6.7121830612273124E-011
   1.0220000000000000          7.6680903049100431E-011
   1.0250000000000001          8.5541531280323827E-011
   1.0280000000000000          9.3227672512791128E-011
   1.0310000000000001          9.9204468334187040E-011
   1.0340000000000000          1.0287690759988087E-010
   1.0370000000000001          1.0358811631442510E-010
   1.0400000000000000          1.0061294877196460E-010
   1.0430000000000001          9.3151037699618073E-011
   1.0460000000000000          8.0315450511884770E-011
   1.0490000000000002          6.1113785791196902E-011
   1.0520000000000000          3.4425264551228266E-011
   1.0550000000000002         -1.0293947744235899E-012
   1.0580000000000001         -4.6727211659729364E-011
   1.0610000000000002         -1.0439031326985737E-010
   1.0640000000000001         -1.7604630906105770E-010
   1.0670000000000002         -2.6409963807445722E-010
   1.0700000000000001         -3.7140852500917592E-010
   1.0730000000000002         -5.0138828897662631E-010
   1.0760000000000001         -6.5812197402402863E-010
   1.0790000000000002         -8.4648279756689943E-010
   1.0820000000000001         -1.0722834676734117E-009
   1.0850000000000002         -1.3424370022269529E-009
   1.0880000000000001         -1.6651331732161987E-009
   1.0910000000000002         -2.0500540632450542E-009
   1.0940000000000001         -2.5085877912782147E-009
   1.0970000000000002         -3.0540763651976888E-009
