 -0.39999999999999997          0.0000000000000000     
 -0.39699999999999996          0.0000000000000000     
 -0.39399999999999996          0.0000000000000000     
 -0.39099999999999996          0.0000000000000000     
 -0.38799999999999996          0.0000000000000000     
 -0.38499999999999995          0.0000000000000000     
 -0.38199999999999995          0.0000000000000000     
 -0.37899999999999995          0.0000000000000000     
 -0.37599999999999995          0.0000000000000000     
 -0.37299999999999994          0.0000000000000000     
 -0.37000000000000000          0.0000000000000000     
 -0.36699999999999999          0.0000000000000000     
 -0.36399999999999999          0.0000000000000000     
 -0.36099999999999999          0.0000000000000000     
 -0.35799999999999998          0.0000000000000000     
 -0.35499999999999998          0.0000000000000000     
 -0.35199999999999998          0.0000000000000000     
 -0.34899999999999998          0.0000000000000000     
 -0.34599999999999997          0.0000000000000000     
 -0.34299999999999997          0.0000000000000000     
 -0.33999999999999997          0.0000000000000000     
 -0.33699999999999997          0.0000000000000000     
 -0.33399999999999996          0.0000000000000000     
 -0.33099999999999996          0.0000000000000000     
 -0.32799999999999996          0.0000000000000000     
 -0.32499999999999996          0.0000000000000000     
 -0.32199999999999995          0.0000000000000000     
 -0.31899999999999995          0.0000000000000000     
 -0.31599999999999995          0.0000000000000000     
 -0.31299999999999994          0.0000000000000000     
 -0.30999999999999994          0.0000000000000000     
 -0.30699999999999994          0.0000000000000000     
 -0.30399999999999994          0.0000000000000000     
 -0.30099999999999993          0.0000000000000000     
 -0.29799999999999993          0.0000000000000000     
 -0.29499999999999998          0.0000000000000000     
 -0.29199999999999998          0.0000000000000000     
 -0.28899999999999998          0.0000000000000000     
 -0.28599999999999998          0.0000000000000000     
 -0.28299999999999997          0.0000000000000000     
 -0.27999999999999997          0.0000000000000000     
 -0.27699999999999997          0.0000000000000000     
 -0.27399999999999997          0.0000000000000000     
 -0.27099999999999996          0.0000000000000000     
 -0.26799999999999996          0.0000000000000000     
 -0.26499999999999996          0.0000000000000000     
 -0.26199999999999996          0.0000000000000000     
 -0.25899999999999995          0.0000000000000000     
 -0.25599999999999995          0.0000000000000000     
 -0.25300000000000000          0.0000000000000000     
 -0.24999999999999997          0.0000000000000000     
 -0.24699999999999997          0.0000000000000000     
 -0.24399999999999997          0.0000000000000000     
 -0.24099999999999996          0.0000000000000000     
 -0.23799999999999996          0.0000000000000000     
 -0.23499999999999996          0.0000000000000000     
 -0.23199999999999996          0.0000000000000000     
 -0.22899999999999995          0.0000000000000000     
 -0.22599999999999995          0.0000000000000000     
 -0.22299999999999998          0.0000000000000000     
 -0.21999999999999997          0.0000000000000000     
 -0.21699999999999997          0.0000000000000000     
 -0.21399999999999997          0.0000000000000000     
 -0.21099999999999997          0.0000000000000000     
 -0.20799999999999996          0.0000000000000000     
 -0.20499999999999996          0.0000000000000000     
 -0.20199999999999996          0.0000000000000000     
 -0.19899999999999995          0.0000000000000000     
 -0.19599999999999995          0.0000000000000000     
 -0.19299999999999995          0.0000000000000000     
 -0.18999999999999997          0.0000000000000000     
 -0.18699999999999997          0.0000000000000000     
 -0.18399999999999997          0.0000000000000000     
 -0.18099999999999997          0.0000000000000000     
 -0.17799999999999996          0.0000000000000000     
 -0.17499999999999996          0.0000000000000000     
 -0.17199999999999996          0.0000000000000000     
 -0.16899999999999996          0.0000000000000000     
 -0.16599999999999995          0.0000000000000000     
 -0.16299999999999995          0.0000000000000000     
 -0.15999999999999998          0.0000000000000000     
 -0.15699999999999997          0.0000000000000000     
 -0.15399999999999997          0.0000000000000000     
 -0.15099999999999997          0.0000000000000000     
 -0.14799999999999996          0.0000000000000000     
 -0.14499999999999996          0.0000000000000000     
 -0.14199999999999996          0.0000000000000000     
 -0.13899999999999996          0.0000000000000000     
 -0.13599999999999995          0.0000000000000000     
 -0.13299999999999995          0.0000000000000000     
 -0.12999999999999995          0.0000000000000000     
 -0.12699999999999995          0.0000000000000000     
 -0.12399999999999994          0.0000000000000000     
 -0.12099999999999994          0.0000000000000000     
 -0.11799999999999994          0.0000000000000000     
 -0.11499999999999994          0.0000000000000000     
 -0.11199999999999993          0.0000000000000000     
 -0.10899999999999999          0.0000000000000000     
 -0.10599999999999998          0.0000000000000000     
 -0.10299999999999998          0.0000000000000000     
  -9.9999999999999978E-002     0.0000000000000000     
  -9.6999999999999975E-002     0.0000000000000000     
  -9.3999999999999972E-002     0.0000000000000000     
  -9.0999999999999970E-002     0.0000000000000000     
  -8.7999999999999967E-002     0.0000000000000000     
  -8.4999999999999964E-002     0.0000000000000000     
  -8.1999999999999962E-002     0.0000000000000000     
  -7.8999999999999959E-002     0.0000000000000000     
  -7.5999999999999956E-002     0.0000000000000000     
  -7.2999999999999954E-002     0.0000000000000000     
  -6.9999999999999951E-002     0.0000000000000000     
  -6.6999999999999948E-002     0.0000000000000000     
  -6.3999999999999946E-002     0.0000000000000000     
  -6.0999999999999943E-002     0.0000000000000000     
  -5.7999999999999940E-002     0.0000000000000000     
  -5.4999999999999938E-002     0.0000000000000000     
  -5.1999999999999935E-002     0.0000000000000000     
  -4.8999999999999932E-002     0.0000000000000000     
  -4.5999999999999985E-002     0.0000000000000000     
  -4.2999999999999983E-002     0.0000000000000000     
  -3.9999999999999980E-002     0.0000000000000000     
  -3.6999999999999977E-002     0.0000000000000000     
  -3.3999999999999975E-002     0.0000000000000000     
  -3.0999999999999972E-002     0.0000000000000000     
  -2.7999999999999969E-002     0.0000000000000000     
  -2.4999999999999967E-002     0.0000000000000000     
  -2.1999999999999964E-002     0.0000000000000000     
  -1.8999999999999961E-002     0.0000000000000000     
  -1.5999999999999959E-002     0.0000000000000000     
  -1.2999999999999956E-002     0.0000000000000000     
  -9.9999999999999534E-003     0.0000000000000000     
  -6.9999999999999507E-003     0.0000000000000000     
  -3.9999999999999480E-003     0.0000000000000000     
  -9.9999999999994538E-004     0.0000000000000000     
   2.0000000000000573E-003     0.0000000000000000     
   5.0000000000000600E-003     0.0000000000000000     
   8.0000000000000626E-003     0.0000000000000000     
   1.1000000000000065E-002     0.0000000000000000     
   1.4000000000000068E-002     0.0000000000000000     
   1.7000000000000015E-002     0.0000000000000000     
   2.0000000000000018E-002     0.0000000000000000     
   2.3000000000000020E-002     0.0000000000000000     
   2.6000000000000023E-002     0.0000000000000000     
   2.9000000000000026E-002     0.0000000000000000     
   3.2000000000000028E-002     0.0000000000000000     
   3.5000000000000031E-002     0.0000000000000000     
   3.8000000000000034E-002     0.0000000000000000     
   4.1000000000000036E-002     0.0000000000000000     
   4.4000000000000039E-002     0.0000000000000000     
   4.7000000000000042E-002     0.0000000000000000     
   5.0000000000000044E-002    -6.4000914020729269E-042
   5.3000000000000047E-002    -8.2674955563690533E-042
   5.6000000000000050E-002     0.0000000000000000     
   5.9000000000000052E-002     2.4180775728382632E-041
   6.2000000000000055E-002     5.1034075647755335E-042
   6.5000000000000058E-002    -7.5212826078595049E-040
   6.8000000000000060E-002    -7.3213948754647963E-040
   7.1000000000000063E-002     1.6180249381614907E-040
   7.4000000000000066E-002     2.4533756349006806E-039
   7.7000000000000068E-002     3.4872309488691729E-039
   8.0000000000000016E-002    -1.3467232792885252E-039
   8.3000000000000018E-002    -9.7597068069022495E-039
   8.6000000000000021E-002    -1.3477092207302654E-038
   8.9000000000000024E-002    -3.6378629773622173E-039
   9.2000000000000026E-002     2.6667205135393960E-038
   9.5000000000000029E-002     5.6062017247995016E-038
   9.8000000000000032E-002     3.7816474760748158E-038
  0.10100000000000003         -5.3193871421041789E-038
  0.10400000000000004         -2.0246824426284841E-037
  0.10700000000000004         -2.4078332974850145E-037
  0.11000000000000004         -9.2404566941899795E-039
  0.11300000000000004          5.1685530302401594E-037
  0.11600000000000005          9.7635101421537151E-037
  0.11900000000000005          6.7081512783106566E-037
  0.12200000000000005         -8.7564769060549834E-037
  0.12500000000000006         -3.0710412397951688E-036
  0.12800000000000006         -3.8147033775862963E-036
  0.13100000000000006         -5.3252963282176820E-037
  0.13400000000000006          7.0962396827302966E-036
  0.13700000000000007          1.4320090978028102E-035
  0.14000000000000007          1.1801925064538559E-035
  0.14300000000000007         -7.8059950719774750E-036
  0.14600000000000007         -3.8961874929516914E-035
  0.14900000000000008         -5.6663537654426239E-035
  0.15200000000000008         -2.6213638390896887E-035
  0.15500000000000008          6.6108807252791754E-035
  0.15800000000000008          1.7659475336605931E-034
  0.16100000000000009          1.9779368280193803E-034
  0.16400000000000009          1.7788591141572970E-035
  0.16700000000000009         -3.5975082941742193E-034
  0.17000000000000010         -7.1056377658824297E-034
  0.17300000000000010         -6.2733971197160398E-034
  0.17600000000000010          2.1221260400544563E-034
  0.17899999999999999          1.6253746601970397E-033
  0.18200000000000000          2.6577485126858012E-033
  0.18500000000000000          1.8786941773824545E-033
  0.18800000000000000         -1.5772031553606080E-033
  0.19100000000000000         -6.6326335643954672E-033
  0.19400000000000001         -9.6363011076483713E-033
  0.19700000000000001         -5.7206639407844054E-033
  0.20000000000000001          7.5086583364472215E-033
  0.20300000000000001          2.5537519276197425E-032
  0.20600000000000002          3.5300750656486501E-032
  0.20900000000000002          2.0098549475860061E-032
  0.21200000000000002         -2.8128945000217747E-032
  0.21500000000000002         -9.4247139467111887E-032
  0.21800000000000003         -1.3400817678390151E-031
  0.22100000000000003         -8.8550424351984333E-032
  0.22400000000000003          7.7153643593019074E-032
  0.22700000000000004          3.2532850824123215E-031
  0.23000000000000004          5.1751750387911428E-031
  0.23300000000000004          4.4563089996842010E-031
  0.23600000000000004         -5.8526843067001188E-032
  0.23900000000000005         -9.6089011652963519E-031
  0.24200000000000005         -1.8923500796862986E-030
  0.24500000000000005         -2.1636481388781827E-030
  0.24800000000000005         -1.0227377170019389E-030
  0.25100000000000006          1.8541212262792223E-030
  0.25400000000000006          5.8107064778610364E-030
  0.25700000000000006          8.9280098679106858E-030
  0.26000000000000006          8.3822947737615597E-030
  0.26300000000000007          1.6495439933319977E-030
  0.26600000000000007         -1.1637641055308771E-029
  0.26900000000000007         -2.7904395706069850E-029
  0.27200000000000008         -3.9061959307349586E-029
  0.27500000000000008         -3.4290979330404612E-029
  0.27800000000000008         -4.6500679484073424E-030
  0.28100000000000008          5.0358555589383609E-029
  0.28400000000000009          1.1677918491337344E-028
  0.28700000000000009          1.6445949414976200E-028
  0.29000000000000009          1.5316207930601363E-028
  0.29300000000000009          4.7997351064924646E-029
  0.29600000000000010         -1.5841903159766366E-028
  0.29900000000000010         -4.2463314768094055E-028
  0.30200000000000010         -6.5121169322711097E-028
  0.30499999999999999         -6.9536169433743875E-028
  0.30800000000000000         -4.1558910558394582E-028
  0.31100000000000000          2.5834771422286454E-028
  0.31400000000000000          1.2493807612358272E-027
  0.31700000000000000          2.2830124693345382E-027
  0.32000000000000001          2.9000462014864546E-027
  0.32300000000000001          2.5599403034094332E-027
  0.32600000000000001          8.3684408257014476E-028
  0.32900000000000001         -2.3286098832691003E-027
  0.33200000000000002         -6.4007527423543395E-027
  0.33500000000000002         -1.0151710897702189E-026
  0.33800000000000002         -1.1802223465479127E-026
  0.34100000000000003         -9.4618526634350563E-027
  0.34400000000000003         -1.8392662466255694E-027
  0.34700000000000003          1.0926916752843286E-026
  0.35000000000000003          2.6583093468970137E-026
  0.35300000000000004          4.0554933185224173E-026
  0.35600000000000004          4.6525708992989765E-026
  0.35900000000000004          3.7949275858700984E-026
  0.36200000000000004          1.0372561202949082E-026
  0.36500000000000005         -3.5907089592946653E-026
  0.36800000000000005         -9.3650100738399125E-026
  0.37100000000000005         -1.4793353473474756E-025
  0.37400000000000005         -1.7776030568195537E-025
  0.37700000000000006         -1.6049633856460190E-025
  0.38000000000000006         -7.8853211121069073E-026
  0.38300000000000006          7.0830187414475089E-026
  0.38600000000000007          2.7119649987631024E-025
  0.38900000000000007          4.8015050628157199E-025
  0.39200000000000007          6.3353831904375062E-025
  0.39500000000000007          6.5599126042270301E-025
  0.39800000000000008          4.7984530178250904E-025
  0.40100000000000008          6.9530624608741420E-026
  0.40400000000000008         -5.5388343402889274E-025
  0.40700000000000008         -1.2953064310091514E-024
  0.41000000000000009         -1.9833907285819648E-024
  0.41300000000000009         -2.3899151310706267E-024
  0.41600000000000009         -2.2733449764532955E-024
  0.41900000000000009         -1.4431724041800473E-024
  0.42200000000000010          1.6554114698806190E-025
  0.42500000000000010          2.4244866726098737E-024
  0.42800000000000010          4.9726234909233734E-024
  0.43100000000000011          7.2256568758133860E-024
  0.43400000000000000          8.4494980367003892E-024
  0.43700000000000000          7.9003751330016412E-024
  0.44000000000000000          5.0179808598814592E-024
  0.44300000000000000         -3.6053579857158383E-025
  0.44600000000000001         -7.8136928094828068E-024
  0.44900000000000001         -1.6232487658408793E-023
  0.45200000000000001         -2.3854490534706036E-023
  0.45500000000000002         -2.8471980801354995E-023
  0.45800000000000002         -2.7819267585350240E-023
  0.46100000000000002         -2.0102872771936555E-023
  0.46400000000000002         -4.5931354311670206E-024
  0.46700000000000003          1.7843319573413324E-023
  0.47000000000000003          4.4413324083144748E-023
  0.47300000000000003          7.0406477773261535E-023
  0.47600000000000003          8.9644686834126879E-023
  0.47900000000000004          9.5402425572235585E-023
  0.48200000000000004          8.1731837252028074E-023
  0.48500000000000004          4.5020035470182918E-023
  0.48800000000000004         -1.4493334483836664E-023
  0.49100000000000005         -9.1571511958322332E-023
  0.49400000000000005         -1.7556127231233202E-022
  0.49700000000000005         -2.5098194023093545E-022
  0.50000000000000000         -2.9928401352851983E-022
  0.50300000000000011         -3.0173374538131344E-022
  0.50600000000000001         -2.4314709159849378E-022
  0.50900000000000012         -1.1595845161899106E-022
  0.51200000000000001          7.6083668641760376E-023
  0.51500000000000012          3.1541193687080652E-022
  0.51800000000000002          5.7010110648068305E-022
  0.52100000000000013          7.9590217416793422E-022
  0.52400000000000002          9.4111269687234183E-022
  0.52700000000000014          9.5411266854481091E-022
  0.53000000000000003          7.9282974429127166E-022
  0.53300000000000014          4.3495139023010571E-022
  0.53600000000000003         -1.1276347470081565E-022
  0.53900000000000015         -8.0788921515962574E-022
  0.54200000000000004         -1.5702390216354960E-021
  0.54500000000000015         -2.2856939484421061E-021
  0.54800000000000004         -2.8166985923441581E-021
  0.55100000000000016         -3.0192569726737431E-021
  0.55400000000000005         -2.7651917345523938E-021
  0.55700000000000016         -1.9672742647731040E-021
  0.56000000000000005         -6.0397092080390403E-022
  0.56299999999999994          1.2602197838350587E-021
  0.56600000000000006          3.4629184641860325E-021
  0.56899999999999995          5.7443447304527818E-021
  0.57200000000000006          7.7628196268679397E-021
  0.57499999999999996          9.1264218663811866E-021
  0.57800000000000007          9.4399209260496024E-021
  0.58099999999999996          8.3635728523453788E-021
  0.58400000000000007          5.6780801581858060E-021
  0.58699999999999997          1.3477485081986028E-021
  0.59000000000000008         -4.4273927812167356E-021
  0.59299999999999997         -1.1180627570201303E-020
  0.59600000000000009         -1.8177903766778363E-020
  0.59899999999999998         -2.4454920682249598E-020
  0.60200000000000009         -2.8895598439579204E-020
  0.60500000000000020         -3.0351154266217670E-020
  0.60800000000000010         -2.7793340296573448E-020
  0.61100000000000021         -2.0489132028272497E-020
  0.61400000000000010         -8.1783075931526559E-021
  0.61700000000000021          8.7690541231840714E-021
  0.62000000000000011          2.9240919501648770E-020
  0.62300000000000022          5.1344297986944452E-020
  0.62600000000000011          7.2461390089830710E-020
  0.62900000000000000          8.9416063925723292E-020
  0.63200000000000012          9.8757278581640469E-020
  0.63500000000000001          9.7148955276723304E-020
  0.63800000000000012          8.1842988319807895E-020
  0.64100000000000001          5.1192636123637621E-020
  0.64400000000000013          5.1509629473475056E-021
  0.64700000000000002         -5.4313760324942452E-020
  0.65000000000000013         -1.2296065720287867E-019
  0.65300000000000002         -1.9424589020593257E-019
  0.65600000000000014         -2.5957959103046962E-019
  0.65900000000000003         -3.0890441417579146E-019
  0.66200000000000014         -3.3160357042509158E-019
  0.66500000000000004         -3.1770047127552255E-019
  0.66800000000000015         -2.5927192377727726E-019
  0.67100000000000004         -1.5195093777700185E-019
  0.67400000000000015          3.6430914505040948E-021
  0.67700000000000005          2.0074059290953427E-019
  0.68000000000000016          4.2572398330849674E-019
  0.68300000000000005          6.5809270952770047E-019
  0.68600000000000017          8.7124677817852266E-019
  0.68900000000000006          1.0341836371612792E-018
  0.69200000000000017          1.1141262493374920E-018
  0.69500000000000006          1.0799884280012777E-018
  0.69800000000000018          9.0644795396106657E-019
  0.70100000000000007          5.7833468293735954E-019
  0.70400000000000018          9.4855005493358277E-020
  0.70700000000000007         -5.2682747512890857E-019
  0.71000000000000019         -1.2492341594279213E-018
  0.71300000000000008         -2.0139744607917298E-018
  0.71600000000000019         -2.7433584358672014E-018
  0.71900000000000008         -3.3445713880377644E-018
  0.72200000000000020         -3.7165049039691464E-018
  0.72500000000000009         -3.7590952277388598E-018
  0.72800000000000020         -3.3847004634707569E-018
  0.73100000000000009         -2.5307840464779664E-018
  0.73400000000000021         -1.1727340692040126E-018
  0.73700000000000010          6.6443054097638656E-019
  0.74000000000000021          2.8970650645986747E-018
  0.74300000000000010          5.3781313467658499E-018
  0.74600000000000022          7.8980486343613664E-018
  0.74900000000000011          1.0192558042325238E-017
  0.75200000000000022          1.1957932479746069E-017
  0.75500000000000012          1.2874066785285718E-017
  0.75800000000000001          1.2634296313831099E-017
  0.76100000000000012          1.0980816728567253E-017
  0.76400000000000001          7.7428706818895821E-018
  0.76700000000000013          2.8746588345228625E-018
  0.77000000000000002         -3.5109880896816556E-018
  0.77300000000000013         -1.1117483766267032E-017
  0.77600000000000002         -1.9452696638294041E-017
  0.77900000000000014         -2.7833828374742585E-017
  0.78200000000000003         -3.5412859216765782E-017
  0.78500000000000014         -4.1224140685416430E-017
  0.78800000000000003         -4.4254224974209254E-017
  0.79100000000000015         -4.3531818697145667E-017
  0.79400000000000004         -3.8233736260162371E-017
  0.79700000000000015         -2.7799528548166192E-017
  0.80000000000000004         -1.2045581913493436E-017
  0.80300000000000016          8.7316203657259521E-018
  0.80600000000000005          3.3676946494940344E-017
  0.80900000000000016          6.1333245176819854E-017
  0.81200000000000006          8.9647420289518271E-017
  0.81500000000000017          1.1603348828448992E-016
  0.81800000000000006          1.3749920054571801E-016
  0.82100000000000017          1.5083973406486634E-016
  0.82400000000000007          1.5289192205876313E-016
  0.82700000000000018          1.4083942877707229E-016
  0.83000000000000007          1.1255144674247493E-016
  0.83300000000000018          6.6931008404775105E-017
  0.83600000000000008          4.2425164751357244E-018
  0.83900000000000019         -7.3615129661980735E-017
  0.84200000000000008         -1.6292492455087500E-016
  0.84500000000000020         -2.5809473200829171E-016
  0.84800000000000009         -3.5175422473669734E-016
  0.85100000000000020         -4.3503387174439647E-016
  0.85400000000000009         -4.9803459178818427E-016
  0.85700000000000021         -5.3048717912101468E-016
  0.86000000000000010         -5.2257991113470110E-016
  0.86300000000000021         -4.6592385551906789E-016
  0.86600000000000010         -3.5459049914583642E-016
  0.86900000000000022         -1.8615476230607478E-016
  0.87200000000000011          3.7353087697002669E-017
  0.87500000000000022          3.0867578556790845E-016
  0.87800000000000011          6.1484947098173406E-016
  0.88100000000000001          9.3710676151557313E-016
  0.88400000000000012          1.2512578706142408E-015
  0.88700000000000001          1.5285980620056165E-015
  0.89000000000000012          1.7373766946535158E-015
  0.89300000000000002          1.8448316355882450E-015
  0.89600000000000013          1.8197083994111536E-015
  0.89900000000000002          1.6351575420829927E-015
  0.90200000000000014          1.2718685638490734E-015
  0.90500000000000003          7.2121390347017252E-016
  0.90800000000000014         -1.1854720237196791E-017
  0.91100000000000003         -9.0641957834981848E-016
  0.91400000000000015         -1.9240471578963690E-015
  0.91700000000000004         -3.0082769567142876E-015
  0.92000000000000015         -4.0854926451920399E-015
  0.92300000000000004         -5.0673353298817759E-015
  0.92600000000000016         -5.8546821825640215E-015
  0.92900000000000005         -6.3433270739823657E-015
  0.93200000000000016         -6.4311458404749869E-015
  0.93500000000000005         -6.0264614793447590E-015
  0.93800000000000017         -5.0572712011458363E-015
  0.94100000000000006         -3.4806900120377076E-015
  0.94400000000000017         -1.2921176094318523E-015
  0.94700000000000006          1.4669379806714324E-015
  0.95000000000000018          4.7028541034350147E-015
  0.95300000000000007          8.2667606803395969E-015
  0.95600000000000018          1.1954891875876358E-014
  0.95900000000000007          1.5513163614146144E-014
  0.96200000000000019          1.8646297392989619E-014
  0.96500000000000008          2.1031679774988824E-014
  0.96800000000000019          2.2337920153841569E-014
  0.97100000000000009          2.2247509870137693E-014
  0.97400000000000020          2.0482579481463729E-014
  0.97700000000000009          1.6832760704903343E-014
  0.98000000000000020          1.1183206548766885E-014
  0.98300000000000010          3.5412601190279769E-015
  0.98600000000000021         -5.9412369144439919E-015
  0.98900000000000010         -1.6951003252836009E-014
  0.99200000000000021         -2.9005389953728446E-014
  0.99500000000000011         -4.1454271480236504E-014
  0.99800000000000022         -5.3494297007791816E-014
   1.0010000000000001         -6.4196097659642633E-014
   1.0040000000000002         -7.2545424678917886E-014
   1.0070000000000001         -7.7497036327730321E-014
   1.0100000000000000         -7.8040642965678876E-014
   1.0130000000000001         -7.3276200258764584E-014
   1.0160000000000000         -6.2495162141011864E-014
   1.0190000000000001         -4.5263012652560194E-014
   1.0220000000000000         -2.1498400587465039E-014
   1.0250000000000001          8.4573252872997952E-015
   1.0280000000000000          4.3786780300249833E-014
   1.0310000000000001          8.3163726520477242E-014
   1.0340000000000000          1.2474993144350807E-013
   1.0370000000000001          1.6622240626240119E-013
   1.0400000000000000          2.0483807183114510E-013
   1.0430000000000001          2.3753560446866019E-013
   1.0460000000000000          2.6107609729894986E-013
   1.0490000000000002          2.7221738179479424E-013
   1.0520000000000000          2.6791691748657872E-013
   1.0550000000000002          2.4556214888570855E-013
   1.0580000000000001          2.0320529388139367E-013
   1.0610000000000002          1.3980004381478034E-013
   1.0640000000000001          5.5421215583889088E-014
   1.0670000000000002         -4.8544678439467813E-014
   1.0700000000000001         -1.6926238273978135E-013
   1.0730000000000002         -3.0237131147483212E-013
   1.0760000000000001         -4.4199006893483459E-013
   1.0790000000000002         -5.8081017366552697E-013
   1.0820000000000001         -7.1029131556025398E-013
   1.0850000000000002         -8.2095962749591042E-013
   1.0880000000000001         -9.0280323037120814E-013
   1.0910000000000002         -9.4576915867619469E-013
   1.0940000000000001         -9.4033012722566935E-013
   1.0970000000000002         -8.7812018698685904E-013
