 -0.39999999999999997          0.0000000000000000     
 -0.39699999999999996          0.0000000000000000     
 -0.39399999999999996          0.0000000000000000     
 -0.39099999999999996          0.0000000000000000     
 -0.38799999999999996          0.0000000000000000     
 -0.38499999999999995          0.0000000000000000     
 -0.38199999999999995          0.0000000000000000     
 -0.37899999999999995          0.0000000000000000     
 -0.37599999999999995          0.0000000000000000     
 -0.37299999999999994          0.0000000000000000     
 -0.37000000000000000          0.0000000000000000     
 -0.36699999999999999          0.0000000000000000     
 -0.36399999999999999          0.0000000000000000     
 -0.36099999999999999          0.0000000000000000     
 -0.35799999999999998          0.0000000000000000     
 -0.35499999999999998          0.0000000000000000     
 -0.35199999999999998          0.0000000000000000     
 -0.34899999999999998          0.0000000000000000     
 -0.34599999999999997          0.0000000000000000     
 -0.34299999999999997          0.0000000000000000     
 -0.33999999999999997          0.0000000000000000     
 -0.33699999999999997          0.0000000000000000     
 -0.33399999999999996          0.0000000000000000     
 -0.33099999999999996          0.0000000000000000     
 -0.32799999999999996          0.0000000000000000     
 -0.32499999999999996          0.0000000000000000     
 -0.32199999999999995          0.0000000000000000     
 -0.31899999999999995          0.0000000000000000     
 -0.31599999999999995          0.0000000000000000     
 -0.31299999999999994          0.0000000000000000     
 -0.30999999999999994          0.0000000000000000     
 -0.30699999999999994          0.0000000000000000     
 -0.30399999999999994          0.0000000000000000     
 -0.30099999999999993          0.0000000000000000     
 -0.29799999999999993          0.0000000000000000     
 -0.29499999999999998          0.0000000000000000     
 -0.29199999999999998          0.0000000000000000     
 -0.28899999999999998          0.0000000000000000     
 -0.28599999999999998          0.0000000000000000     
 -0.28299999999999997          0.0000000000000000     
 -0.27999999999999997          0.0000000000000000     
 -0.27699999999999997          0.0000000000000000     
 -0.27399999999999997          0.0000000000000000     
 -0.27099999999999996          0.0000000000000000     
 -0.26799999999999996          0.0000000000000000     
 -0.26499999999999996          0.0000000000000000     
 -0.26199999999999996          0.0000000000000000     
 -0.25899999999999995          0.0000000000000000     
 -0.25599999999999995          0.0000000000000000     
 -0.25300000000000000          0.0000000000000000     
 -0.24999999999999997          0.0000000000000000     
 -0.24699999999999997          0.0000000000000000     
 -0.24399999999999997          0.0000000000000000     
 -0.24099999999999996          0.0000000000000000     
 -0.23799999999999996          0.0000000000000000     
 -0.23499999999999996          0.0000000000000000     
 -0.23199999999999996          0.0000000000000000     
 -0.22899999999999995          0.0000000000000000     
 -0.22599999999999995          0.0000000000000000     
 -0.22299999999999998          0.0000000000000000     
 -0.21999999999999997          0.0000000000000000     
 -0.21699999999999997          0.0000000000000000     
 -0.21399999999999997          0.0000000000000000     
 -0.21099999999999997          0.0000000000000000     
 -0.20799999999999996          0.0000000000000000     
 -0.20499999999999996          0.0000000000000000     
 -0.20199999999999996          0.0000000000000000     
 -0.19899999999999995          0.0000000000000000     
 -0.19599999999999995          0.0000000000000000     
 -0.19299999999999995          0.0000000000000000     
 -0.18999999999999997          0.0000000000000000     
 -0.18699999999999997          0.0000000000000000     
 -0.18399999999999997          0.0000000000000000     
 -0.18099999999999997          0.0000000000000000     
 -0.17799999999999996          0.0000000000000000     
 -0.17499999999999996          0.0000000000000000     
 -0.17199999999999996          0.0000000000000000     
 -0.16899999999999996          0.0000000000000000     
 -0.16599999999999995          0.0000000000000000     
 -0.16299999999999995          0.0000000000000000     
 -0.15999999999999998          0.0000000000000000     
 -0.15699999999999997          0.0000000000000000     
 -0.15399999999999997          0.0000000000000000     
 -0.15099999999999997          0.0000000000000000     
 -0.14799999999999996          0.0000000000000000     
 -0.14499999999999996          0.0000000000000000     
 -0.14199999999999996          0.0000000000000000     
 -0.13899999999999996          0.0000000000000000     
 -0.13599999999999995          0.0000000000000000     
 -0.13299999999999995          0.0000000000000000     
 -0.12999999999999995          0.0000000000000000     
 -0.12699999999999995          0.0000000000000000     
 -0.12399999999999994          0.0000000000000000     
 -0.12099999999999994          0.0000000000000000     
 -0.11799999999999994          0.0000000000000000     
 -0.11499999999999994          0.0000000000000000     
 -0.11199999999999993          0.0000000000000000     
 -0.10899999999999999          0.0000000000000000     
 -0.10599999999999998          0.0000000000000000     
 -0.10299999999999998          0.0000000000000000     
  -9.9999999999999978E-002     0.0000000000000000     
  -9.6999999999999975E-002     0.0000000000000000     
  -9.3999999999999972E-002     0.0000000000000000     
  -9.0999999999999970E-002     0.0000000000000000     
  -8.7999999999999967E-002     0.0000000000000000     
  -8.4999999999999964E-002     0.0000000000000000     
  -8.1999999999999962E-002     0.0000000000000000     
  -7.8999999999999959E-002     0.0000000000000000     
  -7.5999999999999956E-002     0.0000000000000000     
  -7.2999999999999954E-002     0.0000000000000000     
  -6.9999999999999951E-002     0.0000000000000000     
  -6.6999999999999948E-002     0.0000000000000000     
  -6.3999999999999946E-002     0.0000000000000000     
  -6.0999999999999943E-002     0.0000000000000000     
  -5.7999999999999940E-002     0.0000000000000000     
  -5.4999999999999938E-002     0.0000000000000000     
  -5.1999999999999935E-002     0.0000000000000000     
  -4.8999999999999932E-002     0.0000000000000000     
  -4.5999999999999985E-002     0.0000000000000000     
  -4.2999999999999983E-002     0.0000000000000000     
  -3.9999999999999980E-002     0.0000000000000000     
  -3.6999999999999977E-002     0.0000000000000000     
  -3.3999999999999975E-002     0.0000000000000000     
  -3.0999999999999972E-002     0.0000000000000000     
  -2.7999999999999969E-002     0.0000000000000000     
  -2.4999999999999967E-002     0.0000000000000000     
  -2.1999999999999964E-002     0.0000000000000000     
  -1.8999999999999961E-002     0.0000000000000000     
  -1.5999999999999959E-002     0.0000000000000000     
  -1.2999999999999956E-002     0.0000000000000000     
  -9.9999999999999534E-003     0.0000000000000000     
  -6.9999999999999507E-003     0.0000000000000000     
  -3.9999999999999480E-003     0.0000000000000000     
  -9.9999999999994538E-004     0.0000000000000000     
   2.0000000000000573E-003     0.0000000000000000     
   5.0000000000000600E-003     0.0000000000000000     
   8.0000000000000626E-003     0.0000000000000000     
   1.1000000000000065E-002     0.0000000000000000     
   1.4000000000000068E-002     0.0000000000000000     
   1.7000000000000015E-002     0.0000000000000000     
   2.0000000000000018E-002     0.0000000000000000     
   2.3000000000000020E-002     0.0000000000000000     
   2.6000000000000023E-002     0.0000000000000000     
   2.9000000000000026E-002     0.0000000000000000     
   3.2000000000000028E-002     0.0000000000000000     
   3.5000000000000031E-002     0.0000000000000000     
   3.8000000000000034E-002     0.0000000000000000     
   4.1000000000000036E-002     0.0000000000000000     
   4.4000000000000039E-002     0.0000000000000000     
   4.7000000000000042E-002     0.0000000000000000     
   5.0000000000000044E-002     0.0000000000000000     
   5.3000000000000047E-002     0.0000000000000000     
   5.6000000000000050E-002     0.0000000000000000     
   5.9000000000000052E-002     0.0000000000000000     
   6.2000000000000055E-002     0.0000000000000000     
   6.5000000000000058E-002     0.0000000000000000     
   6.8000000000000060E-002     0.0000000000000000     
   7.1000000000000063E-002     0.0000000000000000     
   7.4000000000000066E-002     0.0000000000000000     
   7.7000000000000068E-002     0.0000000000000000     
   8.0000000000000016E-002     0.0000000000000000     
   8.3000000000000018E-002     0.0000000000000000     
   8.6000000000000021E-002     0.0000000000000000     
   8.9000000000000024E-002     0.0000000000000000     
   9.2000000000000026E-002     0.0000000000000000     
   9.5000000000000029E-002     0.0000000000000000     
   9.8000000000000032E-002     0.0000000000000000     
  0.10100000000000003          0.0000000000000000     
  0.10400000000000004          0.0000000000000000     
  0.10700000000000004          0.0000000000000000     
  0.11000000000000004          0.0000000000000000     
  0.11300000000000004          0.0000000000000000     
  0.11600000000000005          0.0000000000000000     
  0.11900000000000005          0.0000000000000000     
  0.12200000000000005          0.0000000000000000     
  0.12500000000000006          0.0000000000000000     
  0.12800000000000006          0.0000000000000000     
  0.13100000000000006          0.0000000000000000     
  0.13400000000000006          0.0000000000000000     
  0.13700000000000007          0.0000000000000000     
  0.14000000000000007          0.0000000000000000     
  0.14300000000000007          0.0000000000000000     
  0.14600000000000007          0.0000000000000000     
  0.14900000000000008          0.0000000000000000     
  0.15200000000000008          0.0000000000000000     
  0.15500000000000008          0.0000000000000000     
  0.15800000000000008          0.0000000000000000     
  0.16100000000000009          0.0000000000000000     
  0.16400000000000009          0.0000000000000000     
  0.16700000000000009          0.0000000000000000     
  0.17000000000000010          0.0000000000000000     
  0.17300000000000010          0.0000000000000000     
  0.17600000000000010          0.0000000000000000     
  0.17899999999999999          0.0000000000000000     
  0.18200000000000000          0.0000000000000000     
  0.18500000000000000          0.0000000000000000     
  0.18800000000000000          0.0000000000000000     
  0.19100000000000000          0.0000000000000000     
  0.19400000000000001          0.0000000000000000     
  0.19700000000000001          0.0000000000000000     
  0.20000000000000001          0.0000000000000000     
  0.20300000000000001          0.0000000000000000     
  0.20600000000000002          0.0000000000000000     
  0.20900000000000002          0.0000000000000000     
  0.21200000000000002          0.0000000000000000     
  0.21500000000000002          0.0000000000000000     
  0.21800000000000003          0.0000000000000000     
  0.22100000000000003          0.0000000000000000     
  0.22400000000000003          0.0000000000000000     
  0.22700000000000004          0.0000000000000000     
  0.23000000000000004          0.0000000000000000     
  0.23300000000000004          0.0000000000000000     
  0.23600000000000004          0.0000000000000000     
  0.23900000000000005          0.0000000000000000     
  0.24200000000000005          0.0000000000000000     
  0.24500000000000005          0.0000000000000000     
  0.24800000000000005          0.0000000000000000     
  0.25100000000000006          0.0000000000000000     
  0.25400000000000006          0.0000000000000000     
  0.25700000000000006          0.0000000000000000     
  0.26000000000000006          0.0000000000000000     
  0.26300000000000007          0.0000000000000000     
  0.26600000000000007          0.0000000000000000     
  0.26900000000000007          0.0000000000000000     
  0.27200000000000008          0.0000000000000000     
  0.27500000000000008          0.0000000000000000     
  0.27800000000000008          0.0000000000000000     
  0.28100000000000008          0.0000000000000000     
  0.28400000000000009          0.0000000000000000     
  0.28700000000000009          0.0000000000000000     
  0.29000000000000009          0.0000000000000000     
  0.29300000000000009          0.0000000000000000     
  0.29600000000000010          0.0000000000000000     
  0.29900000000000010          0.0000000000000000     
  0.30200000000000010          0.0000000000000000     
  0.30499999999999999          0.0000000000000000     
  0.30800000000000000          0.0000000000000000     
  0.31100000000000000          0.0000000000000000     
  0.31400000000000000          0.0000000000000000     
  0.31700000000000000          0.0000000000000000     
  0.32000000000000001          0.0000000000000000     
  0.32300000000000001          0.0000000000000000     
  0.32600000000000001          0.0000000000000000     
  0.32900000000000001          0.0000000000000000     
  0.33200000000000002          0.0000000000000000     
  0.33500000000000002          0.0000000000000000     
  0.33800000000000002          0.0000000000000000     
  0.34100000000000003          0.0000000000000000     
  0.34400000000000003          0.0000000000000000     
  0.34700000000000003          0.0000000000000000     
  0.35000000000000003          0.0000000000000000     
  0.35300000000000004          0.0000000000000000     
  0.35600000000000004          0.0000000000000000     
  0.35900000000000004          0.0000000000000000     
  0.36200000000000004          0.0000000000000000     
  0.36500000000000005          0.0000000000000000     
  0.36800000000000005          0.0000000000000000     
  0.37100000000000005          0.0000000000000000     
  0.37400000000000005          0.0000000000000000     
  0.37700000000000006          0.0000000000000000     
  0.38000000000000006          0.0000000000000000     
  0.38300000000000006          0.0000000000000000     
  0.38600000000000007          0.0000000000000000     
  0.38900000000000007          0.0000000000000000     
  0.39200000000000007          0.0000000000000000     
  0.39500000000000007          0.0000000000000000     
  0.39800000000000008          0.0000000000000000     
  0.40100000000000008          0.0000000000000000     
  0.40400000000000008          0.0000000000000000     
  0.40700000000000008          0.0000000000000000     
  0.41000000000000009          0.0000000000000000     
  0.41300000000000009          0.0000000000000000     
  0.41600000000000009          0.0000000000000000     
  0.41900000000000009          0.0000000000000000     
  0.42200000000000010          0.0000000000000000     
  0.42500000000000010          0.0000000000000000     
  0.42800000000000010          0.0000000000000000     
  0.43100000000000011          0.0000000000000000     
  0.43400000000000000          0.0000000000000000     
  0.43700000000000000          0.0000000000000000     
  0.44000000000000000          0.0000000000000000     
  0.44300000000000000          0.0000000000000000     
  0.44600000000000001          0.0000000000000000     
  0.44900000000000001          0.0000000000000000     
  0.45200000000000001          0.0000000000000000     
  0.45500000000000002          0.0000000000000000     
  0.45800000000000002          0.0000000000000000     
  0.46100000000000002          0.0000000000000000     
  0.46400000000000002         -6.3264356405251821E-042
  0.46700000000000003         -1.6070916843450893E-041
  0.47000000000000003          1.3342886718318797E-041
  0.47300000000000003          3.3610320089539998E-041
  0.47600000000000003         -6.9516514689520711E-040
  0.47900000000000004         -1.5127047131109679E-039
  0.48200000000000004         -2.1530303999356510E-039
  0.48500000000000004         -2.4060326878508802E-039
  0.48800000000000004         -2.1533879285880730E-039
  0.49100000000000005          1.9643292889423999E-040
  0.49400000000000005          4.8266060328526957E-039
  0.49700000000000005          8.5240299423139081E-039
  0.50000000000000000          1.1285933149393887E-038
  0.50300000000000011          1.1465117525731586E-038
  0.50600000000000001          8.8291314165428250E-039
  0.50900000000000012          3.0400497018416999E-040
  0.51200000000000001         -1.3604677256369186E-038
  0.51500000000000012         -3.0488498807641129E-038
  0.51800000000000002         -4.7792579692835174E-038
  0.52100000000000013         -5.8007516992565160E-038
  0.52400000000000002         -4.7844862128248028E-038
  0.52700000000000014         -2.6662761476843630E-038
  0.53000000000000003          2.5797523702729254E-038
  0.53300000000000014          1.0018128600572684E-037
  0.53600000000000003          1.8401116240097778E-037
  0.53900000000000015          2.5511996399465365E-037
  0.54200000000000004          2.8747705369283711E-037
  0.54500000000000015          2.4126219200553692E-037
  0.54800000000000004          9.1984772777831224E-038
  0.55100000000000016         -1.6950028351133070E-037
  0.55400000000000005         -5.2042710878535788E-037
  0.55700000000000016         -9.0159780704158121E-037
  0.56000000000000005         -1.2095849960949088E-036
  0.56299999999999994         -1.3111483608682835E-036
  0.56600000000000006         -1.0662264234750741E-036
  0.56899999999999995         -3.6727944395309029E-037
  0.57200000000000006          8.1300622277516834E-037
  0.57499999999999996          2.3727693724738617E-036
  0.57800000000000007          4.0451079568245918E-036
  0.58099999999999996          5.3950298311665279E-036
  0.58400000000000007          5.8640961911928065E-036
  0.58699999999999997          4.8699490500118717E-036
  0.59000000000000008          1.9611741714139838E-036
  0.59299999999999997         -2.9889095200097100E-036
  0.59600000000000009         -9.5887691826221614E-036
  0.59899999999999998         -1.6792089010423765E-035
  0.60200000000000009         -2.2877114279876916E-035
  0.60500000000000020         -2.5602091023967461E-035
  0.60800000000000010         -2.2578968057520104E-035
  0.61100000000000021         -1.1860742733515622E-035
  0.61400000000000010          7.3246242916052256E-036
  0.61700000000000021          3.3822079794160070E-035
  0.62000000000000011          6.3969589056269227E-035
  0.62300000000000022          9.1425477038810408E-035
  0.62600000000000011          1.0763073159785027E-034
  0.62900000000000000          1.0305793313258111E-034
  0.63200000000000012          6.9266508351627466E-035
  0.63500000000000001          1.5831356990427939E-036
  0.63800000000000012         -9.8012460481758481E-035
  0.64100000000000001         -2.1845167414301690E-034
  0.64400000000000013         -3.3840289657702612E-034
  0.64700000000000002         -4.2718497846401163E-034
  0.65000000000000013         -4.4842442506221346E-034
  0.65300000000000002         -3.6669861606636904E-034
  0.65600000000000014         -1.5674880347331172E-034
  0.65900000000000003          1.8593472844861670E-034
  0.66200000000000014          6.3518435803047172E-034
  0.66500000000000004          1.1275772807004614E-033
  0.66800000000000015          1.5621615982451121E-033
  0.67100000000000004          1.8091047365222585E-033
  0.67400000000000015          1.7287921906024602E-033
  0.67700000000000005          1.2010303849014440E-033
  0.68000000000000016          1.6144685547160339E-034
  0.68300000000000005         -1.3605760424908099E-033
  0.68600000000000017         -3.2106879602144852E-033
  0.68900000000000006         -5.0949787845978291E-033
  0.69200000000000017         -6.5918150316258970E-033
  0.69500000000000006         -7.1976042059592218E-033
  0.69800000000000018         -6.4091424185377003E-033
  0.70100000000000007         -3.8378405028339304E-033
  0.70400000000000018          6.5774658243767382E-034
  0.70700000000000007          6.8437508486967578E-033
  0.71000000000000019          1.4017478911123223E-032
  0.71300000000000008          2.0982036954218789E-032
  0.71600000000000019          2.6120020113967701E-032
  0.71900000000000008          2.7586824205663928E-032
  0.72200000000000020          2.3625449329416130E-032
  0.72500000000000009          1.2979066935676192E-032
  0.72800000000000020         -4.6513700147123544E-033
  0.73100000000000009         -2.8185985257554587E-032
  0.73400000000000021         -5.4883842668070936E-032
  0.73700000000000010         -8.0308717839858553E-032
  0.74000000000000021         -9.8637719848450635E-032
  0.74300000000000010         -1.0336958420713309E-031
  0.74600000000000022         -8.8425771424482797E-032
  0.74900000000000011         -4.9555765321843567E-032
  0.75200000000000022          1.4137983477398385E-032
  0.75500000000000012          9.8821118348078295E-032
  0.75800000000000001          1.9502550122033562E-031
  0.76100000000000012          2.8756794055058696E-031
  0.76400000000000001          3.5658185110297446E-031
  0.76700000000000013          3.7983364459863534E-031
  0.77000000000000002          3.3629494050346274E-031
  0.77300000000000013          2.1068859885125268E-031
  0.77600000000000002         -1.5551635891477882E-033
  0.77900000000000014         -2.8976206558476058E-031
  0.78200000000000003         -6.2490212403851993E-031
  0.78500000000000014         -9.5896675814472674E-031
  0.78800000000000003         -1.2277552186137447E-030
  0.79100000000000015         -1.3576384040041199E-030
  0.79400000000000004         -1.2763057951685639E-030
  0.79700000000000015         -9.2673140286340944E-031
  0.80000000000000004         -2.8281396459100462E-031
  0.80300000000000016          6.3571043020190285E-031
  0.80600000000000005          1.7520033912011076E-030
  0.80900000000000016          2.9277464888830554E-030
  0.81200000000000006          3.9685090475651537E-030
  0.81500000000000017          4.6409615238818038E-030
  0.81800000000000006          4.7023657820010575E-030
  0.82100000000000017          3.9409548706546663E-030
  0.82400000000000007          2.2232138651480494E-030
  0.82700000000000018         -4.5812005816703056E-031
  0.83000000000000007         -3.9434534023551569E-030
  0.83300000000000018         -7.8824797079871008E-030
  0.83600000000000008         -1.1736097373770858E-029
  0.83900000000000019         -1.4811234160155909E-029
  0.84200000000000008         -1.6332405095052363E-029
  0.84500000000000020         -1.5548630338872689E-029
  0.84800000000000009         -1.1867572129095831E-029
  0.85100000000000020         -5.0027682152229176E-030
  0.85400000000000009          4.8871032149903446E-030
  0.85700000000000021          1.7091891209719555E-029
  0.86000000000000010          3.0303785317981254E-029
  0.86300000000000021          4.2655302302486610E-029
  0.86600000000000010          5.1858930422505604E-029
  0.86900000000000022          5.5454838188498531E-029
  0.87200000000000011          5.1156522341847268E-029
  0.87500000000000022          3.7266811244500010E-029
  0.87800000000000011          1.3117673055899946E-029
  0.88100000000000001         -2.0528179816494462E-029
  0.88400000000000012         -6.1187534922093592E-029
  0.88700000000000001         -1.0455368572602492E-028
  0.89000000000000012         -1.4464666267026940E-028
  0.89300000000000002         -1.7426254190982821E-028
  0.89600000000000013         -1.8573298969548465E-028
  0.89900000000000002         -1.7196382586733190E-028
  0.90200000000000014         -1.2767165742435559E-028
  0.90500000000000003         -5.0685209316193598E-029
  0.90800000000000014          5.6863317607128108E-029
  0.91100000000000003          1.8766109909990196E-028
  0.91400000000000015          3.2886749409208986E-028
  0.91700000000000004          4.6247691123301408E-028
  0.92000000000000015          5.6653909539485862E-028
  0.92300000000000004          6.1727099073500000E-028
  0.92600000000000016          5.9200360749014694E-028
  0.92900000000000005          4.7274627133175794E-028
  0.93200000000000016          2.5004455877113271E-028
  0.93500000000000005         -7.3360691371895120E-029
  0.93800000000000017         -4.7960431261414060E-028
  0.94100000000000006         -9.3413468606643673E-028
  0.94400000000000017         -1.3860487218033308E-027
  0.94700000000000006         -1.7707910070180847E-027
  0.95000000000000018         -2.0154458931800970E-027
  0.95300000000000007         -2.0465651132759596E-027
  0.95600000000000018         -1.8001282310775944E-027
  0.95900000000000007         -1.2328363067563343E-027
  0.96200000000000019         -3.3354093236787851E-028
  0.96500000000000008          8.6664742109775003E-028
  0.96800000000000019          2.2872872235615613E-027
  0.97100000000000009          3.7962718162035465E-027
  0.97400000000000020          5.2137357991220928E-027
  0.97700000000000009          6.3233480183185651E-027
  0.98000000000000020          6.8912798701052024E-027
  0.98300000000000010          6.6924497337347182E-027
  0.98600000000000021          5.5424325785152802E-027
  0.98900000000000010          3.3323967174226032E-027
  0.99200000000000021          6.3233337246851895E-029
  0.99500000000000011         -4.1255213128166050E-027
  0.99800000000000022         -8.9371834964908374E-027
   1.0010000000000001         -1.3914706198852245E-026
   1.0040000000000002         -1.8457108122504904E-026
   1.0070000000000001         -2.1858459494802018E-026
   1.0100000000000000         -2.3370212770721687E-026
   1.0130000000000001         -2.2284999608968899E-026
   1.0160000000000000         -1.8036912874231825E-026
   1.0190000000000001         -1.0309731620172567E-026
   1.0220000000000000          8.5786561054411760E-028
   1.0250000000000001          1.4984527535027694E-026
   1.0280000000000000          3.1090280092309563E-026
   1.0310000000000001          4.7688456038129202E-026
   1.0340000000000000          6.2837317818406293E-026
   1.0370000000000001          7.4260898209851862E-026
   1.0400000000000000          7.9542065785516649E-026
   1.0430000000000001          7.6380971683545564E-026
   1.0460000000000000          6.2906519210646583E-026
   1.0490000000000002          3.8014626003411949E-026
   1.0520000000000000          1.7004731611576853E-027
   1.0550000000000002         -4.4656967882418359E-026
   1.0580000000000001         -9.8103687796033334E-026
   1.0610000000000002         -1.5405870594691148E-025
   1.0640000000000001         -2.0644190473673682E-025
   1.0670000000000002         -2.4801344633234592E-025
   1.0700000000000001         -2.7093338095405155E-025
   1.0730000000000002         -2.6753519183948826E-025
   1.0760000000000001         -2.3127347896590491E-025
   1.0790000000000002         -1.5777754719801995E-025
   1.0820000000000001         -4.5919571108793084E-026
   1.0850000000000002          1.0122791813435609E-025
   1.0880000000000001          2.7567805554929249E-025
   1.0910000000000002          4.6420688584116885E-025
   1.0940000000000001          6.4854661115733490E-025
   1.0970000000000002          8.0621006802079046E-025
