 -0.39999999999999997          0.0000000000000000     
 -0.39699999999999996          0.0000000000000000     
 -0.39399999999999996          0.0000000000000000     
 -0.39099999999999996          0.0000000000000000     
 -0.38799999999999996          0.0000000000000000     
 -0.38499999999999995          0.0000000000000000     
 -0.38199999999999995          0.0000000000000000     
 -0.37899999999999995          0.0000000000000000     
 -0.37599999999999995          0.0000000000000000     
 -0.37299999999999994          0.0000000000000000     
 -0.37000000000000000          0.0000000000000000     
 -0.36699999999999999          0.0000000000000000     
 -0.36399999999999999          0.0000000000000000     
 -0.36099999999999999          0.0000000000000000     
 -0.35799999999999998          0.0000000000000000     
 -0.35499999999999998          0.0000000000000000     
 -0.35199999999999998          0.0000000000000000     
 -0.34899999999999998          0.0000000000000000     
 -0.34599999999999997          0.0000000000000000     
 -0.34299999999999997          0.0000000000000000     
 -0.33999999999999997          0.0000000000000000     
 -0.33699999999999997          0.0000000000000000     
 -0.33399999999999996          0.0000000000000000     
 -0.33099999999999996          0.0000000000000000     
 -0.32799999999999996          0.0000000000000000     
 -0.32499999999999996          0.0000000000000000     
 -0.32199999999999995          0.0000000000000000     
 -0.31899999999999995          0.0000000000000000     
 -0.31599999999999995          0.0000000000000000     
 -0.31299999999999994          0.0000000000000000     
 -0.30999999999999994          0.0000000000000000     
 -0.30699999999999994          0.0000000000000000     
 -0.30399999999999994          0.0000000000000000     
 -0.30099999999999993          0.0000000000000000     
 -0.29799999999999993          0.0000000000000000     
 -0.29499999999999998          0.0000000000000000     
 -0.29199999999999998          0.0000000000000000     
 -0.28899999999999998          0.0000000000000000     
 -0.28599999999999998          0.0000000000000000     
 -0.28299999999999997          0.0000000000000000     
 -0.27999999999999997          0.0000000000000000     
 -0.27699999999999997          0.0000000000000000     
 -0.27399999999999997          0.0000000000000000     
 -0.27099999999999996          0.0000000000000000     
 -0.26799999999999996          0.0000000000000000     
 -0.26499999999999996          0.0000000000000000     
 -0.26199999999999996          0.0000000000000000     
 -0.25899999999999995          0.0000000000000000     
 -0.25599999999999995          0.0000000000000000     
 -0.25300000000000000          0.0000000000000000     
 -0.24999999999999997          0.0000000000000000     
 -0.24699999999999997          0.0000000000000000     
 -0.24399999999999997          0.0000000000000000     
 -0.24099999999999996          0.0000000000000000     
 -0.23799999999999996          0.0000000000000000     
 -0.23499999999999996          0.0000000000000000     
 -0.23199999999999996          0.0000000000000000     
 -0.22899999999999995          0.0000000000000000     
 -0.22599999999999995          0.0000000000000000     
 -0.22299999999999998          0.0000000000000000     
 -0.21999999999999997          0.0000000000000000     
 -0.21699999999999997          0.0000000000000000     
 -0.21399999999999997          0.0000000000000000     
 -0.21099999999999997          0.0000000000000000     
 -0.20799999999999996          0.0000000000000000     
 -0.20499999999999996          0.0000000000000000     
 -0.20199999999999996          0.0000000000000000     
 -0.19899999999999995          0.0000000000000000     
 -0.19599999999999995          0.0000000000000000     
 -0.19299999999999995          0.0000000000000000     
 -0.18999999999999997          0.0000000000000000     
 -0.18699999999999997          0.0000000000000000     
 -0.18399999999999997          0.0000000000000000     
 -0.18099999999999997          0.0000000000000000     
 -0.17799999999999996          0.0000000000000000     
 -0.17499999999999996          0.0000000000000000     
 -0.17199999999999996          0.0000000000000000     
 -0.16899999999999996          0.0000000000000000     
 -0.16599999999999995          0.0000000000000000     
 -0.16299999999999995          0.0000000000000000     
 -0.15999999999999998          0.0000000000000000     
 -0.15699999999999997          0.0000000000000000     
 -0.15399999999999997          0.0000000000000000     
 -0.15099999999999997          0.0000000000000000     
 -0.14799999999999996          0.0000000000000000     
 -0.14499999999999996          0.0000000000000000     
 -0.14199999999999996          0.0000000000000000     
 -0.13899999999999996          0.0000000000000000     
 -0.13599999999999995          0.0000000000000000     
 -0.13299999999999995          0.0000000000000000     
 -0.12999999999999995          0.0000000000000000     
 -0.12699999999999995          0.0000000000000000     
 -0.12399999999999994          0.0000000000000000     
 -0.12099999999999994          0.0000000000000000     
 -0.11799999999999994          0.0000000000000000     
 -0.11499999999999994          0.0000000000000000     
 -0.11199999999999993          0.0000000000000000     
 -0.10899999999999999          0.0000000000000000     
 -0.10599999999999998          0.0000000000000000     
 -0.10299999999999998          0.0000000000000000     
  -9.9999999999999978E-002     0.0000000000000000     
  -9.6999999999999975E-002     0.0000000000000000     
  -9.3999999999999972E-002     0.0000000000000000     
  -9.0999999999999970E-002     0.0000000000000000     
  -8.7999999999999967E-002     0.0000000000000000     
  -8.4999999999999964E-002     0.0000000000000000     
  -8.1999999999999962E-002     0.0000000000000000     
  -7.8999999999999959E-002    -2.2861807049853529E-042
  -7.5999999999999956E-002    -8.8638654486674739E-043
  -7.2999999999999954E-002     9.1644476002405980E-041
  -6.9999999999999951E-002    -2.6137940056981307E-042
  -6.6999999999999948E-002    -1.9877025694021130E-040
  -6.3999999999999946E-002    -3.1988393807889027E-040
  -6.0999999999999943E-002     4.1460161055739098E-041
  -5.7999999999999940E-002     9.6049492386584476E-040
  -5.4999999999999938E-002     1.2600759636923604E-039
  -5.1999999999999935E-002    -1.3011090406252665E-039
  -4.8999999999999932E-002    -4.9825366911110110E-039
  -4.5999999999999985E-002    -4.0462519260528377E-039
  -4.2999999999999983E-002     7.7220079912986392E-039
  -3.9999999999999980E-002     2.2289503429784924E-038
  -3.6999999999999977E-002     2.8885116186766531E-038
  -3.3999999999999975E-002    -2.5823417276752859E-038
  -3.0999999999999972E-002    -1.1781383855745832E-037
  -2.7999999999999969E-002    -1.1855679228865837E-037
  -2.4999999999999967E-002     1.1909460002534209E-037
  -2.1999999999999964E-002     5.0421146421197721E-037
  -1.8999999999999961E-002     5.0215178517102969E-037
  -1.5999999999999959E-002    -4.8868218462990004E-037
  -1.2999999999999956E-002    -2.0907475990208467E-036
  -9.9999999999999534E-003    -2.1717471177308107E-036
  -6.9999999999999507E-003     1.7583033874936365E-036
  -3.9999999999999480E-003     8.4156087989965936E-036
  -9.9999999999994538E-004     9.5248996270877291E-036
   2.0000000000000573E-003    -5.2747151391404835E-036
   5.0000000000000600E-003    -3.2636441521965179E-035
   8.0000000000000626E-003    -4.1675691684231004E-035
   1.1000000000000065E-002     1.0548330232511855E-035
   1.4000000000000068E-002     1.2047759164564794E-034
   1.7000000000000015E-002     1.7864484889679118E-034
   2.0000000000000018E-002     1.0559807572698072E-035
   2.3000000000000020E-002    -4.1525381505734745E-034
   2.6000000000000023E-002    -7.3744157583757948E-034
   2.9000000000000026E-002    -2.7144708921107126E-034
   3.2000000000000028E-002     1.2929788897400339E-033
   3.5000000000000031E-002     2.8823888595634803E-033
   3.8000000000000034E-002     1.9462764452811981E-033
   4.1000000000000036E-002    -3.3897486557614675E-033
   4.4000000000000039E-002    -1.0467883530499155E-032
   4.7000000000000042E-002    -1.0432070859636869E-032
   5.0000000000000044E-002     5.9196046081294903E-033
   5.3000000000000047E-002     3.4422023171253710E-032
   5.6000000000000050E-002     4.7143505706050553E-032
   5.9000000000000052E-002     4.9567691160572478E-033
   6.2000000000000055E-002    -9.7957065341967959E-032
   6.5000000000000058E-002    -1.8507640884476813E-031
   6.8000000000000060E-002    -1.0996911958587585E-031
   7.1000000000000063E-002     2.1599297477007862E-031
   7.4000000000000066E-002     6.2932990926799583E-031
   7.7000000000000068E-002     6.5104066956744256E-031
   8.0000000000000016E-002    -2.0979215632535082E-031
   8.3000000000000018E-002    -1.7934286135244466E-030
   8.6000000000000021E-002    -2.7735879366485500E-030
   8.9000000000000024E-002    -1.1429914294532248E-030
   9.2000000000000026E-002     3.8650744725376949E-030
   9.5000000000000029E-002     9.4165368630458425E-030
   9.8000000000000032E-002     8.8868363431739220E-030
  0.10100000000000003         -3.6530766039116107E-030
  0.10400000000000004         -2.5169654862666552E-029
  0.10700000000000004         -3.8170913612844694E-029
  0.11000000000000004         -1.7595576052526228E-029
  0.11300000000000004          4.6100393400425050E-029
  0.11600000000000005          1.1984663864948903E-028
  0.11900000000000005          1.2550384413794203E-028
  0.12200000000000005         -1.1531365245908550E-029
  0.12500000000000006         -2.7159892955111954E-028
  0.12800000000000006         -4.7394365417590789E-028
  0.13100000000000006         -3.3223444837633913E-028
  0.13400000000000006          3.1973984450322253E-028
  0.13700000000000007          1.2327781283202760E-027
  0.14000000000000007          1.6424764064353775E-027
  0.14300000000000007          6.4379102688698195E-028
  0.14600000000000007         -1.9576435458041237E-027
  0.14900000000000008         -4.8218836151817052E-027
  0.15200000000000008         -5.1692235009040592E-027
  0.15500000000000008         -4.5070697688533720E-028
  0.15800000000000008          8.8412086200352944E-027
  0.16100000000000009          1.7158675864709934E-026
  0.16400000000000009          1.5328760667436765E-026
  0.16700000000000009         -3.2956561461794466E-027
  0.17000000000000010         -3.4321555652525001E-026
  0.17300000000000010         -5.7827153937067795E-026
  0.17600000000000010         -4.5175522171900649E-026
  0.17899999999999999          2.0855592710007891E-026
  0.18200000000000000          1.2139657975150884E-025
  0.18500000000000000          1.9130570599780878E-025
  0.18800000000000000          1.4285052384490032E-025
  0.19100000000000000         -7.3693164396012629E-026
  0.19400000000000001         -3.9900314745752878E-025
  0.19700000000000001         -6.3591254582503905E-025
  0.20000000000000001         -5.1492164024912010E-025
  0.20300000000000001          1.3665614932078515E-025
  0.20600000000000002          1.1882973325178310E-024
  0.20900000000000002          2.0983397220384339E-024
  0.21200000000000002          2.0478727487477123E-024
  0.21500000000000002          3.6720147911586398E-025
  0.21800000000000003         -2.8741377815793773E-024
  0.22100000000000003         -6.4300687385109368E-024
  0.22400000000000003         -7.9827045134590088E-024
  0.22700000000000004         -5.0336784049701526E-024
  0.23000000000000004          3.5482753462149204E-024
  0.23300000000000004          1.5936252883383410E-023
  0.23600000000000004          2.6673344492422723E-023
  0.23900000000000005          2.7834557107273357E-023
  0.24200000000000005          1.2335932174357714E-023
  0.24500000000000005         -2.1365364255959344E-023
  0.24800000000000005         -6.5104224469395724E-023
  0.25100000000000006         -9.9977083554801833E-023
  0.25400000000000006         -1.0066007690143729E-022
  0.25700000000000006         -4.5542794589579187E-023
  0.26000000000000006          6.9668328497978119E-023
  0.26300000000000007          2.2015002239837587E-022
  0.26600000000000007          3.4884828325638857E-022
  0.26900000000000007          3.7785324789593008E-022
  0.27200000000000008          2.3567295762489926E-022
  0.27500000000000008         -1.0515468540029490E-022
  0.27800000000000008         -5.9295045283901956E-022
  0.28100000000000008         -1.0814647141334829E-021
  0.28400000000000009         -1.3496666599319816E-021
  0.28700000000000009         -1.1631848643916465E-021
  0.29000000000000009         -3.6864845146819276E-022
  0.29300000000000009          1.0048816304967681E-021
  0.29600000000000010          2.6757898752679852E-021
  0.29900000000000010          4.1112573330933561E-021
  0.30200000000000010          4.6272534930947179E-021
  0.30499999999999999          3.5868293547270577E-021
  0.30800000000000000          6.5993730699022780E-022
  0.31100000000000000         -3.9271192433934810E-021
  0.31400000000000000         -9.2456528226866395E-021
  0.31700000000000000         -1.3710938691593490E-020
  0.32000000000000001         -1.5373733419420731E-020
  0.32300000000000001         -1.2444859492362455E-020
  0.32600000000000001         -3.9587833173510946E-021
  0.32900000000000001          9.5938906875670016E-021
  0.33200000000000002          2.5879884205372094E-020
  0.33500000000000002          4.0786811476907487E-020
  0.33800000000000002          4.9063982290250014E-020
  0.34100000000000003          4.5529041780897632E-020
  0.34400000000000003          2.6655560619848798E-020
  0.34700000000000003         -7.8103011274522206E-021
  0.35000000000000003         -5.3664004372192988E-020
  0.35300000000000004         -1.0195439503515838E-019
  0.35600000000000004         -1.3993622112487585E-019
  0.35900000000000004         -1.5335648082712531E-019
  0.36200000000000004         -1.2983360460939003E-019
  0.36500000000000005         -6.2732599008751605E-020
  0.36800000000000005          4.5338261711880805E-020
  0.37100000000000005          1.8040609371179242E-019
  0.37400000000000005          3.1727569584057056E-019
  0.37700000000000006          4.2247756411921890E-019
  0.38000000000000006          4.6000623388753536E-019
  0.38300000000000006          3.9917507280828051E-019
  0.38600000000000007          2.2325707472879947E-019
  0.38900000000000007         -6.2867419931229237E-020
  0.39200000000000007         -4.2800074326305755E-019
  0.39500000000000007         -8.1454787000291852E-019
  0.39800000000000008         -1.1441124187840589E-018
  0.40100000000000008         -1.3288145061992831E-018
  0.40400000000000008         -1.2872101763201133E-018
  0.40700000000000008         -9.6253765556605455E-019
  0.41000000000000009         -3.4017662645676020E-019
  0.41300000000000009          5.3923982939246058E-019
  0.41600000000000009          1.5743885481018405E-018
  0.41900000000000009          2.6079838695212615E-018
  0.42200000000000010          3.4427510202725612E-018
  0.42500000000000010          3.8679496007471524E-018
  0.42800000000000010          3.6938444190190217E-018
  0.43100000000000011          2.7897581927040390E-018
  0.43400000000000000          1.1201345492285831E-018
  0.43700000000000000         -1.2275612608278591E-018
  0.44000000000000000         -4.0290584025438779E-018
  0.44300000000000000         -6.9283041738769782E-018
  0.44600000000000001         -9.4642134271990050E-018
  0.44900000000000001         -1.1119219618160690E-017
  0.45200000000000001         -1.1387028224667718E-017
  0.45500000000000002         -9.8533859911354785E-018
  0.45800000000000002         -6.2812284702831260E-018
  0.46100000000000002         -6.8897117611769939E-019
  0.46400000000000002          6.5905310779379036E-018
  0.46700000000000003          1.4882799557771980E-017
  0.47000000000000003          2.3187335423671767E-017
  0.47300000000000003          3.0243382047807605E-017
  0.47600000000000003          3.4648670122653941E-017
  0.47900000000000004          3.5026943458228653E-017
  0.48200000000000004          3.0232585861205918E-017
  0.48500000000000004          1.9572750396889992E-017
  0.48800000000000004          3.0207219264486149E-018
  0.49100000000000005         -1.8611702087991582E-017
  0.49400000000000005         -4.3576906925691025E-017
  0.49700000000000005         -6.9200122468641175E-017
  0.50000000000000000         -9.2019119285571819E-017
  0.50300000000000011         -1.0806663245616533E-016
  0.50600000000000001         -1.1329066557624698E-016
  0.50900000000000012         -1.0408795802468878E-016
  0.51200000000000001         -7.7903663126909734E-017
  0.51500000000000012         -3.3834523888851080E-017
  0.51800000000000002          2.6846351063352495E-017
  0.52100000000000013          1.0033025909273815E-016
  0.52400000000000002          1.8016047716141204E-016
  0.52700000000000014          2.5743830750064332E-016
  0.53000000000000003          3.2138943258732659E-016
  0.53300000000000014          3.6029798737664082E-016
  0.53600000000000003          3.6277004581350711E-016
  0.53900000000000015          3.1923776013476096E-016
  0.54200000000000004          2.2357435468565550E-016
  0.54500000000000015          7.4645052522894167E-017
  0.54800000000000004         -1.2240490951161398E-016
  0.55100000000000016         -3.5533236345370499E-016
  0.55400000000000005         -6.0463650796334725E-016
  0.55700000000000016         -8.4422442682965453E-016
  0.56000000000000005         -1.0429793423765113E-015
  0.56299999999999994         -1.1672461098466193E-015
  0.56600000000000006         -1.1841439261535375E-015
  0.56899999999999995         -1.0655055841493419E-015
  0.57200000000000006         -7.9213402748047350E-016
  0.57499999999999996         -3.5796303941725228E-016
  0.57800000000000007          2.2632152491395472E-016
  0.58099999999999996          9.3073676681999303E-016
  0.58400000000000007          1.7050119227255023E-015
  0.58699999999999997          2.4795748808023304E-015
  0.59000000000000008          3.1688193506699474E-015
  0.59299999999999997          3.6767888258466337E-015
  0.59600000000000009          3.9051433382560103E-015
  0.59899999999999998          3.7630850130958384E-015
  0.60200000000000009          3.1785835146696474E-015
  0.60500000000000020          2.1100205919288917E-015
  0.60800000000000010          5.5714598361309982E-016
  0.61100000000000021         -1.4299135995125113E-015
  0.61400000000000010         -3.7449050614384623E-015
  0.61700000000000021         -6.2241565417849765E-015
  0.62000000000000011         -8.6508071389985249E-015
  0.62300000000000022         -1.0765225335738945E-014
  0.62600000000000011         -1.2281737519552076E-014
  0.62900000000000000         -1.2911412346945829E-014
  0.63200000000000012         -1.2389782475179389E-014
  0.63500000000000001         -1.0507761640838032E-014
  0.63800000000000012         -7.1434584314108673E-015
  0.64100000000000001         -2.2921117230678964E-015
  0.64400000000000013          3.9090425939014919E-015
  0.64700000000000002          1.1164589532273139E-014
  0.65000000000000013          1.9015931337877725E-014
  0.65300000000000002          2.6850658983098878E-014
  0.65600000000000014          3.3927851364403291E-014
  0.65900000000000003          3.9420013315587783E-014
  0.66200000000000014          4.2471028041381111E-014
  0.66500000000000004          4.2267745709271682E-014
  0.66800000000000015          3.8121892560532127E-014
  0.67100000000000004          2.9556532968067524E-014
  0.67400000000000015          1.6390248866467999E-014
  0.67700000000000005         -1.1879505032210191E-015
  0.68000000000000016         -2.2562003839493065E-014
  0.68300000000000005         -4.6657848436254163E-014
  0.68600000000000017         -7.1945947364582900E-014
  0.68900000000000006         -9.6483111484264100E-014
  0.69200000000000017         -1.1799641604791303E-013
  0.69500000000000006         -1.3401104902060485E-013
  0.69800000000000018         -1.4201815707636583E-013
  0.70100000000000007         -1.3967779235695934E-013
  0.70400000000000018         -1.2504274601136426E-013
  0.70700000000000007         -9.6794729638500846E-014
  0.71000000000000019         -5.4470477693317477E-014
  0.71300000000000008          1.3383451417115965E-015
  0.71600000000000019          6.8833691444919273E-014
  0.71900000000000008          1.4492722678412708E-013
  0.72200000000000020          2.2524355414299936E-013
  0.72500000000000009          3.0422322246579581E-013
  0.72800000000000020          3.7533691427673572E-013
  0.73100000000000009          4.3140930878323313E-013
  0.73400000000000021          4.6505135739433319E-013
  0.73700000000000010          4.6918603192878982E-013
  0.74000000000000021          4.3763538585143268E-013
  0.74300000000000010          3.6574592594302215E-013
  0.74600000000000022          2.5101477470627171E-013
  0.74900000000000011          9.3653595653676096E-014
  0.75200000000000022         -1.0294109432798096E-013
  0.75500000000000012         -3.3187023159749236E-013
  0.75800000000000001         -5.8260917160368951E-013
  0.76100000000000012         -8.4112646200231581E-013
  0.76400000000000001         -1.0902638898865139E-012
  0.76700000000000013         -1.3103969588571037E-012
  0.77000000000000002         -1.4803754629279929E-012
  0.77300000000000013         -1.5787233327840156E-012
  0.77600000000000002         -1.5850412499736714E-012
  0.77900000000000014         -1.4815709241978929E-012
  0.78200000000000003         -1.2548256227696300E-012
  0.78500000000000014         -8.9718406987783012E-013
  0.78800000000000003         -4.0833980759025857E-013
  0.79100000000000015          2.0349662573243962E-013
  0.79400000000000004          9.2077679829497014E-013
  0.79700000000000015          1.7163008596256830E-012
  0.80000000000000004          2.5534577909175256E-012
  0.80300000000000016          3.3871291573086115E-012
  0.80600000000000005          4.1653008101702600E-012
  0.80900000000000016          4.8313406847409284E-012
  0.81200000000000006          5.3269532686767187E-012
  0.81500000000000017          5.5956944858381119E-012
  0.81800000000000006          5.5869278049737585E-012
  0.82100000000000017          5.2600293883015035E-012
  0.82400000000000007          4.5887187772993666E-012
  0.82700000000000018          3.5650760844970744E-012
  0.83000000000000007          2.2032967366101062E-012
  0.83300000000000018          5.4259547071969934E-013
  0.83600000000000008         -1.3507465913343712E-012
  0.83900000000000019         -3.3826667805174735E-012
  0.84200000000000008         -5.4317963780953873E-012
  0.84500000000000020         -7.3516063182643086E-012
  0.84800000000000009         -8.9741863259673858E-012
  0.85100000000000020         -1.0115558574015575E-011
  0.85400000000000009         -1.0582451202684827E-011
  0.85700000000000021         -1.0180765276737078E-011
  0.86000000000000010         -8.7247103572090197E-012
  0.86300000000000021         -6.0472947923244264E-012
  0.86600000000000010         -2.0107836886781655E-012
  0.86900000000000022          3.4824011743941609E-012
  0.87200000000000011          1.0479489225640778E-011
  0.87500000000000022          1.8967660577178553E-011
  0.87800000000000011          2.8865832963675311E-011
  0.88100000000000001          4.0018097143206873E-011
  0.88400000000000012          5.2188663117011612E-011
  0.88700000000000001          6.5058583968407119E-011
  0.89000000000000012          7.8225027817918971E-011
  0.89300000000000002          9.1201957579492937E-011
  0.89600000000000013          1.0342249801107800E-010
  0.89900000000000002          1.1424126468916146E-010
  0.90200000000000014          1.2293876512795881E-010
  0.90500000000000003          1.2872390290425196E-010
  0.90800000000000014          1.3073417953310784E-010
  0.91100000000000003          1.2803494766689264E-010
  0.91400000000000015          1.1961423462574529E-010
  0.91700000000000004          1.0437048930507919E-010
  0.92000000000000015          8.1097064097181076E-011
  0.92300000000000004          4.8451613481592868E-011
  0.92600000000000016          4.9284946689799156E-012
  0.92900000000000005         -5.1195971260673015E-011
  0.93200000000000016         -1.2191898834414052E-010
  0.93500000000000005         -2.0958288738014712E-010
  0.93800000000000017         -3.1695417206071038E-010
  0.94100000000000006         -4.4735408799958004E-010
  0.94400000000000017         -6.0473890932413949E-010
  0.94700000000000006         -7.9386586142679105E-010
  0.95000000000000018         -1.0204407104193110E-009
  0.95300000000000007         -1.2912828089978566E-009
  0.95600000000000018         -1.6145545735348813E-009
  0.95900000000000007         -1.9999208438099251E-009
  0.96200000000000019         -2.4588731447339151E-009
  0.96500000000000008         -3.0049178536084916E-009
  0.96800000000000019         -3.6539074143698075E-009
  0.97100000000000009         -4.4243854860031785E-009
  0.97400000000000020         -5.3378717522733885E-009
  0.97700000000000009         -6.4193645220944398E-009
  0.98000000000000020         -7.6976164889137903E-009
  0.98300000000000010         -9.2057198331086583E-009
  0.98600000000000021         -1.0981547129389598E-008
  0.98900000000000010         -1.3068330589380491E-008
  0.99200000000000021         -1.5515187043279820E-008
  0.99500000000000011         -1.8377944433992888E-008
  0.99800000000000022         -2.1719625198716363E-008
   1.0010000000000001         -2.5611290880813055E-008
   1.0040000000000002         -3.0132850376199679E-008
   1.0070000000000001         -3.5374087880619148E-008
   1.0100000000000000         -4.1434867562373100E-008
   1.0130000000000001         -4.8427237810255935E-008
   1.0160000000000000         -5.6475539092626697E-008
   1.0190000000000001         -6.5717459265972650E-008
   1.0220000000000000         -7.6305506979022680E-008
   1.0250000000000001         -8.8407943668009793E-008
   1.0280000000000000         -1.0220941442827315E-007
   1.0310000000000001         -1.1791260771608480E-007
   1.0340000000000000         -1.3573952798861707E-007
   1.0370000000000001         -1.5593071373330542E-007
   1.0400000000000000         -1.7874742203644973E-007
   1.0430000000000001         -2.0447246455095070E-007
   1.0460000000000000         -2.3341114221181820E-007
   1.0490000000000002         -2.6588871594587413E-007
   1.0520000000000000         -3.0225419885906985E-007
   1.0550000000000002         -3.4288032999449263E-007
   1.0580000000000001         -3.8815872049831750E-007
   1.0610000000000002         -4.3850065547793205E-007
   1.0640000000000001         -4.9434144276711968E-007
   1.0670000000000002         -5.5613047525631351E-007
   1.0700000000000001         -6.2433215596190296E-007
   1.0730000000000002         -6.9942984413851051E-007
   1.0760000000000001         -7.8190740751169754E-007
   1.0790000000000002         -8.7226139664090413E-007
   1.0820000000000001         -9.7098285767019393E-007
   1.0850000000000002         -1.0785608058513348E-006
   1.0880000000000001         -1.1954736757808866E-006
   1.0910000000000002         -1.3221823295575143E-006
   1.0940000000000001         -1.4591244188242242E-006
   1.0970000000000002         -1.6066869175281819E-006
