 -0.39999999999999997          0.0000000000000000     
 -0.39699999999999996          0.0000000000000000     
 -0.39399999999999996          0.0000000000000000     
 -0.39099999999999996          0.0000000000000000     
 -0.38799999999999996          0.0000000000000000     
 -0.38499999999999995          0.0000000000000000     
 -0.38199999999999995          0.0000000000000000     
 -0.37899999999999995          0.0000000000000000     
 -0.37599999999999995          0.0000000000000000     
 -0.37299999999999994          0.0000000000000000     
 -0.37000000000000000          0.0000000000000000     
 -0.36699999999999999          0.0000000000000000     
 -0.36399999999999999          0.0000000000000000     
 -0.36099999999999999          0.0000000000000000     
 -0.35799999999999998          0.0000000000000000     
 -0.35499999999999998          0.0000000000000000     
 -0.35199999999999998          0.0000000000000000     
 -0.34899999999999998          0.0000000000000000     
 -0.34599999999999997          0.0000000000000000     
 -0.34299999999999997          0.0000000000000000     
 -0.33999999999999997          0.0000000000000000     
 -0.33699999999999997          0.0000000000000000     
 -0.33399999999999996          0.0000000000000000     
 -0.33099999999999996          0.0000000000000000     
 -0.32799999999999996          0.0000000000000000     
 -0.32499999999999996          0.0000000000000000     
 -0.32199999999999995          0.0000000000000000     
 -0.31899999999999995          0.0000000000000000     
 -0.31599999999999995          0.0000000000000000     
 -0.31299999999999994          0.0000000000000000     
 -0.30999999999999994          0.0000000000000000     
 -0.30699999999999994          0.0000000000000000     
 -0.30399999999999994          0.0000000000000000     
 -0.30099999999999993          0.0000000000000000     
 -0.29799999999999993          0.0000000000000000     
 -0.29499999999999998          0.0000000000000000     
 -0.29199999999999998          0.0000000000000000     
 -0.28899999999999998          0.0000000000000000     
 -0.28599999999999998          0.0000000000000000     
 -0.28299999999999997          0.0000000000000000     
 -0.27999999999999997          0.0000000000000000     
 -0.27699999999999997          0.0000000000000000     
 -0.27399999999999997          0.0000000000000000     
 -0.27099999999999996          0.0000000000000000     
 -0.26799999999999996          0.0000000000000000     
 -0.26499999999999996          0.0000000000000000     
 -0.26199999999999996          0.0000000000000000     
 -0.25899999999999995          0.0000000000000000     
 -0.25599999999999995          0.0000000000000000     
 -0.25300000000000000          0.0000000000000000     
 -0.24999999999999997          0.0000000000000000     
 -0.24699999999999997          0.0000000000000000     
 -0.24399999999999997          0.0000000000000000     
 -0.24099999999999996          0.0000000000000000     
 -0.23799999999999996          0.0000000000000000     
 -0.23499999999999996          0.0000000000000000     
 -0.23199999999999996          0.0000000000000000     
 -0.22899999999999995          0.0000000000000000     
 -0.22599999999999995          0.0000000000000000     
 -0.22299999999999998          0.0000000000000000     
 -0.21999999999999997          0.0000000000000000     
 -0.21699999999999997          0.0000000000000000     
 -0.21399999999999997          0.0000000000000000     
 -0.21099999999999997          0.0000000000000000     
 -0.20799999999999996          0.0000000000000000     
 -0.20499999999999996          0.0000000000000000     
 -0.20199999999999996          0.0000000000000000     
 -0.19899999999999995          0.0000000000000000     
 -0.19599999999999995          0.0000000000000000     
 -0.19299999999999995          0.0000000000000000     
 -0.18999999999999997          0.0000000000000000     
 -0.18699999999999997          0.0000000000000000     
 -0.18399999999999997          0.0000000000000000     
 -0.18099999999999997          0.0000000000000000     
 -0.17799999999999996          0.0000000000000000     
 -0.17499999999999996          0.0000000000000000     
 -0.17199999999999996          0.0000000000000000     
 -0.16899999999999996          0.0000000000000000     
 -0.16599999999999995          0.0000000000000000     
 -0.16299999999999995          0.0000000000000000     
 -0.15999999999999998          0.0000000000000000     
 -0.15699999999999997          0.0000000000000000     
 -0.15399999999999997          0.0000000000000000     
 -0.15099999999999997          0.0000000000000000     
 -0.14799999999999996          0.0000000000000000     
 -0.14499999999999996          0.0000000000000000     
 -0.14199999999999996          0.0000000000000000     
 -0.13899999999999996          0.0000000000000000     
 -0.13599999999999995          0.0000000000000000     
 -0.13299999999999995          0.0000000000000000     
 -0.12999999999999995          0.0000000000000000     
 -0.12699999999999995          0.0000000000000000     
 -0.12399999999999994          0.0000000000000000     
 -0.12099999999999994          0.0000000000000000     
 -0.11799999999999994          0.0000000000000000     
 -0.11499999999999994          0.0000000000000000     
 -0.11199999999999993          0.0000000000000000     
 -0.10899999999999999          0.0000000000000000     
 -0.10599999999999998          0.0000000000000000     
 -0.10299999999999998          0.0000000000000000     
  -9.9999999999999978E-002     0.0000000000000000     
  -9.6999999999999975E-002     0.0000000000000000     
  -9.3999999999999972E-002     0.0000000000000000     
  -9.0999999999999970E-002     0.0000000000000000     
  -8.7999999999999967E-002     0.0000000000000000     
  -8.4999999999999964E-002     0.0000000000000000     
  -8.1999999999999962E-002     0.0000000000000000     
  -7.8999999999999959E-002     0.0000000000000000     
  -7.5999999999999956E-002     0.0000000000000000     
  -7.2999999999999954E-002     0.0000000000000000     
  -6.9999999999999951E-002     0.0000000000000000     
  -6.6999999999999948E-002     0.0000000000000000     
  -6.3999999999999946E-002     0.0000000000000000     
  -6.0999999999999943E-002     0.0000000000000000     
  -5.7999999999999940E-002     0.0000000000000000     
  -5.4999999999999938E-002     0.0000000000000000     
  -5.1999999999999935E-002     0.0000000000000000     
  -4.8999999999999932E-002     0.0000000000000000     
  -4.5999999999999985E-002     0.0000000000000000     
  -4.2999999999999983E-002     0.0000000000000000     
  -3.9999999999999980E-002     0.0000000000000000     
  -3.6999999999999977E-002     0.0000000000000000     
  -3.3999999999999975E-002     0.0000000000000000     
  -3.0999999999999972E-002     0.0000000000000000     
  -2.7999999999999969E-002     0.0000000000000000     
  -2.4999999999999967E-002     0.0000000000000000     
  -2.1999999999999964E-002     0.0000000000000000     
  -1.8999999999999961E-002     0.0000000000000000     
  -1.5999999999999959E-002     0.0000000000000000     
  -1.2999999999999956E-002     0.0000000000000000     
  -9.9999999999999534E-003     0.0000000000000000     
  -6.9999999999999507E-003     0.0000000000000000     
  -3.9999999999999480E-003     0.0000000000000000     
  -9.9999999999994538E-004     0.0000000000000000     
   2.0000000000000573E-003     0.0000000000000000     
   5.0000000000000600E-003     0.0000000000000000     
   8.0000000000000626E-003     0.0000000000000000     
   1.1000000000000065E-002     0.0000000000000000     
   1.4000000000000068E-002     0.0000000000000000     
   1.7000000000000015E-002     0.0000000000000000     
   2.0000000000000018E-002     0.0000000000000000     
   2.3000000000000020E-002     0.0000000000000000     
   2.6000000000000023E-002     0.0000000000000000     
   2.9000000000000026E-002     0.0000000000000000     
   3.2000000000000028E-002     0.0000000000000000     
   3.5000000000000031E-002     0.0000000000000000     
   3.8000000000000034E-002     0.0000000000000000     
   4.1000000000000036E-002     0.0000000000000000     
   4.4000000000000039E-002     0.0000000000000000     
   4.7000000000000042E-002     0.0000000000000000     
   5.0000000000000044E-002     0.0000000000000000     
   5.3000000000000047E-002     0.0000000000000000     
   5.6000000000000050E-002     0.0000000000000000     
   5.9000000000000052E-002     0.0000000000000000     
   6.2000000000000055E-002     0.0000000000000000     
   6.5000000000000058E-002     0.0000000000000000     
   6.8000000000000060E-002     0.0000000000000000     
   7.1000000000000063E-002     0.0000000000000000     
   7.4000000000000066E-002     0.0000000000000000     
   7.7000000000000068E-002     0.0000000000000000     
   8.0000000000000016E-002     0.0000000000000000     
   8.3000000000000018E-002     0.0000000000000000     
   8.6000000000000021E-002     0.0000000000000000     
   8.9000000000000024E-002     0.0000000000000000     
   9.2000000000000026E-002     0.0000000000000000     
   9.5000000000000029E-002     0.0000000000000000     
   9.8000000000000032E-002     0.0000000000000000     
  0.10100000000000003          0.0000000000000000     
  0.10400000000000004          0.0000000000000000     
  0.10700000000000004          0.0000000000000000     
  0.11000000000000004          0.0000000000000000     
  0.11300000000000004          0.0000000000000000     
  0.11600000000000005          0.0000000000000000     
  0.11900000000000005          0.0000000000000000     
  0.12200000000000005          0.0000000000000000     
  0.12500000000000006          0.0000000000000000     
  0.12800000000000006          0.0000000000000000     
  0.13100000000000006          0.0000000000000000     
  0.13400000000000006          0.0000000000000000     
  0.13700000000000007          0.0000000000000000     
  0.14000000000000007          0.0000000000000000     
  0.14300000000000007          0.0000000000000000     
  0.14600000000000007          0.0000000000000000     
  0.14900000000000008          0.0000000000000000     
  0.15200000000000008          0.0000000000000000     
  0.15500000000000008          0.0000000000000000     
  0.15800000000000008          0.0000000000000000     
  0.16100000000000009          0.0000000000000000     
  0.16400000000000009          0.0000000000000000     
  0.16700000000000009          0.0000000000000000     
  0.17000000000000010          0.0000000000000000     
  0.17300000000000010          0.0000000000000000     
  0.17600000000000010          0.0000000000000000     
  0.17899999999999999          0.0000000000000000     
  0.18200000000000000          0.0000000000000000     
  0.18500000000000000          0.0000000000000000     
  0.18800000000000000          0.0000000000000000     
  0.19100000000000000          0.0000000000000000     
  0.19400000000000001          0.0000000000000000     
  0.19700000000000001          0.0000000000000000     
  0.20000000000000001          0.0000000000000000     
  0.20300000000000001          0.0000000000000000     
  0.20600000000000002          0.0000000000000000     
  0.20900000000000002          0.0000000000000000     
  0.21200000000000002          0.0000000000000000     
  0.21500000000000002          0.0000000000000000     
  0.21800000000000003          0.0000000000000000     
  0.22100000000000003          0.0000000000000000     
  0.22400000000000003          0.0000000000000000     
  0.22700000000000004          0.0000000000000000     
  0.23000000000000004          0.0000000000000000     
  0.23300000000000004          0.0000000000000000     
  0.23600000000000004          0.0000000000000000     
  0.23900000000000005          0.0000000000000000     
  0.24200000000000005          0.0000000000000000     
  0.24500000000000005          0.0000000000000000     
  0.24800000000000005          0.0000000000000000     
  0.25100000000000006          0.0000000000000000     
  0.25400000000000006          0.0000000000000000     
  0.25700000000000006          0.0000000000000000     
  0.26000000000000006          0.0000000000000000     
  0.26300000000000007          0.0000000000000000     
  0.26600000000000007          0.0000000000000000     
  0.26900000000000007          0.0000000000000000     
  0.27200000000000008          0.0000000000000000     
  0.27500000000000008          0.0000000000000000     
  0.27800000000000008          0.0000000000000000     
  0.28100000000000008          0.0000000000000000     
  0.28400000000000009          0.0000000000000000     
  0.28700000000000009          0.0000000000000000     
  0.29000000000000009          0.0000000000000000     
  0.29300000000000009          0.0000000000000000     
  0.29600000000000010          0.0000000000000000     
  0.29900000000000010          0.0000000000000000     
  0.30200000000000010          0.0000000000000000     
  0.30499999999999999          0.0000000000000000     
  0.30800000000000000          0.0000000000000000     
  0.31100000000000000          0.0000000000000000     
  0.31400000000000000          0.0000000000000000     
  0.31700000000000000          0.0000000000000000     
  0.32000000000000001          0.0000000000000000     
  0.32300000000000001          0.0000000000000000     
  0.32600000000000001          0.0000000000000000     
  0.32900000000000001          0.0000000000000000     
  0.33200000000000002          0.0000000000000000     
  0.33500000000000002          0.0000000000000000     
  0.33800000000000002          0.0000000000000000     
  0.34100000000000003          0.0000000000000000     
  0.34400000000000003          0.0000000000000000     
  0.34700000000000003          0.0000000000000000     
  0.35000000000000003          0.0000000000000000     
  0.35300000000000004          0.0000000000000000     
  0.35600000000000004          0.0000000000000000     
  0.35900000000000004          0.0000000000000000     
  0.36200000000000004          0.0000000000000000     
  0.36500000000000005          0.0000000000000000     
  0.36800000000000005          0.0000000000000000     
  0.37100000000000005          0.0000000000000000     
  0.37400000000000005          0.0000000000000000     
  0.37700000000000006          0.0000000000000000     
  0.38000000000000006          0.0000000000000000     
  0.38300000000000006          0.0000000000000000     
  0.38600000000000007          0.0000000000000000     
  0.38900000000000007          0.0000000000000000     
  0.39200000000000007          0.0000000000000000     
  0.39500000000000007          0.0000000000000000     
  0.39800000000000008          0.0000000000000000     
  0.40100000000000008          0.0000000000000000     
  0.40400000000000008          0.0000000000000000     
  0.40700000000000008          0.0000000000000000     
  0.41000000000000009          0.0000000000000000     
  0.41300000000000009          0.0000000000000000     
  0.41600000000000009          0.0000000000000000     
  0.41900000000000009          0.0000000000000000     
  0.42200000000000010          0.0000000000000000     
  0.42500000000000010          0.0000000000000000     
  0.42800000000000010          0.0000000000000000     
  0.43100000000000011          0.0000000000000000     
  0.43400000000000000          0.0000000000000000     
  0.43700000000000000          0.0000000000000000     
  0.44000000000000000          0.0000000000000000     
  0.44300000000000000          0.0000000000000000     
  0.44600000000000001          0.0000000000000000     
  0.44900000000000001          0.0000000000000000     
  0.45200000000000001          0.0000000000000000     
  0.45500000000000002          0.0000000000000000     
  0.45800000000000002          0.0000000000000000     
  0.46100000000000002          0.0000000000000000     
  0.46400000000000002          0.0000000000000000     
  0.46700000000000003          9.2150542585664962E-042
  0.47000000000000003         -1.1548484691248136E-041
  0.47300000000000003         -4.8093763421622843E-041
  0.47600000000000003          6.6145029929268672E-041
  0.47900000000000004         -7.4548317345942777E-042
  0.48200000000000004         -8.6021803492040165E-040
  0.48500000000000004         -1.7272105752415179E-039
  0.48800000000000004         -1.9910157046895684E-039
  0.49100000000000005         -6.2219451638472481E-040
  0.49400000000000005          9.4328331578584006E-041
  0.49700000000000005          1.6381935249159103E-040
  0.50000000000000000          1.4063184162492255E-039
  0.50300000000000011          4.9010131918853554E-039
  0.50600000000000001         -1.1516215770555833E-039
  0.50900000000000012          4.3276350039816306E-039
  0.51200000000000001         -3.9793869057603686E-039
  0.51500000000000012         -1.4832345808423140E-039
  0.51800000000000002         -9.3244636344401047E-039
  0.52100000000000013         -2.0189171819691678E-038
  0.52400000000000002         -2.7640600141029615E-038
  0.52700000000000014         -3.0302761194570362E-038
  0.53000000000000003         -2.4273198201563839E-038
  0.53300000000000014         -7.7759954555913449E-039
  0.53600000000000003          2.4309704753462683E-038
  0.53900000000000015          6.2984520633824240E-038
  0.54200000000000004          1.0462637721037255E-037
  0.54500000000000015          1.3593271986767580E-037
  0.54800000000000004          1.4098898469076832E-037
  0.55100000000000016          1.0356822990951528E-037
  0.55400000000000005          1.2115892565657184E-038
  0.55700000000000016         -1.3418580231826958E-037
  0.56000000000000005         -3.1945917450220480E-037
  0.56299999999999994         -5.0721076901540286E-037
  0.56600000000000006         -6.4077872602483336E-037
  0.56899999999999995         -6.5015193572150747E-037
  0.57200000000000006         -4.6623132468747477E-037
  0.57499999999999996         -4.2084784106492232E-038
  0.57800000000000007          6.2160160964655362E-037
  0.58099999999999996          1.4526385150711782E-036
  0.58400000000000007          2.2922074305816327E-036
  0.58699999999999997          2.8981236026652270E-036
  0.59000000000000008          2.9733994475345700E-036
  0.59299999999999997          2.2248355154509667E-036
  0.59600000000000009          4.4895774017344775E-037
  0.59899999999999998         -2.3660660422741554E-036
  0.60200000000000009         -5.9436006225396249E-036
  0.60500000000000020         -9.6563203898037938E-036
  0.60800000000000010         -1.2532173617928754E-035
  0.61100000000000021         -1.3358547874066133E-035
  0.61400000000000010         -1.0901437416862236E-035
  0.61700000000000021         -4.2327647009989787E-036
  0.62000000000000011          6.8733463251489367E-036
  0.62300000000000022          2.1550779053181867E-035
  0.62600000000000011          3.7565265177716336E-035
  0.62900000000000000          5.1276247123388342E-035
  0.63200000000000012          5.7953048811310264E-035
  0.63500000000000001          5.2520126533782472E-035
  0.63800000000000012          3.0726082090002087E-035
  0.64100000000000001         -9.3799302365636419E-036
  0.64400000000000013         -6.5910171117751569E-035
  0.64700000000000002         -1.3190541665403369E-034
  0.65000000000000013         -1.9485200244554975E-034
  0.65300000000000002         -2.3739269251818062E-034
  0.65600000000000014         -2.3956208180693062E-034
  0.65900000000000003         -1.8263575042429489E-034
  0.66200000000000014         -5.4319914058718230E-035
  0.66500000000000004          1.4543464954570485E-034
  0.66800000000000015          3.9915798213650168E-034
  0.67100000000000004          6.6863141349384367E-034
  0.67400000000000015          8.9532825923686240E-034
  0.67700000000000005          1.0059225749976329E-033
  0.68000000000000016          9.2361612021608446E-034
  0.68300000000000005          5.8495331751769857E-034
  0.68600000000000017         -3.9635995056420066E-035
  0.68900000000000006         -9.2488545651982818E-034
  0.69200000000000017         -1.9740579977183125E-033
  0.69500000000000006         -3.0121966892658166E-033
  0.69800000000000018         -3.7947002429400992E-033
  0.70100000000000007         -4.0352724140193259E-033
  0.70400000000000018         -3.4544295957278939E-033
  0.70700000000000007         -1.8455373350400608E-033
  0.71000000000000019          8.4968798099048230E-034
  0.71300000000000008          4.4695097000210402E-033
  0.71600000000000019          8.5816864677951715E-033
  0.71900000000000008          1.2473359057782240E-032
  0.72200000000000020          1.5198735814321422E-032
  0.72500000000000009          1.5695799233518038E-032
  0.72800000000000020          1.2972384382607801E-032
  0.73100000000000009          6.3472131573214465E-033
  0.73400000000000021         -4.2856155693892153E-033
  0.73700000000000010         -1.8216442215694850E-032
  0.74000000000000021         -3.3763967149577303E-032
  0.74300000000000010         -4.8266538775624549E-032
  0.74600000000000022         -5.8275680904399884E-032
  0.74900000000000011         -5.9983941508201487E-032
  0.75200000000000022         -4.9881960665870681E-032
  0.75500000000000012         -2.5590523126964909E-032
  0.75800000000000001          1.3240847801000656E-032
  0.76100000000000012          6.4128307058189902E-032
  0.76400000000000001          1.2123614347968910E-031
  0.76700000000000013          1.7535113788465449E-031
  0.77000000000000002          2.1452292509136585E-031
  0.77300000000000013          2.2547115921056253E-031
  0.77600000000000002          1.9574278416618115E-031
  0.77900000000000014          1.1644929648172767E-031
  0.78200000000000003         -1.4754170511156244E-032
  0.78500000000000014         -1.9094529564862652E-031
  0.78800000000000003         -3.9407584430023991E-031
  0.79100000000000015         -5.9462077150403186E-031
  0.79400000000000004         -7.5329761417456577E-031
  0.79700000000000015         -8.2520801983884781E-031
  0.80000000000000004         -7.6640947631460465E-031
  0.80300000000000016         -5.4247592133459079E-031
  0.80600000000000005         -1.3809234133765294E-031
  0.80900000000000016          4.3375585259366530E-031
  0.81200000000000006          1.1248197343056265E-030
  0.81500000000000017          1.8488234071748114E-030
  0.81800000000000006          2.4847286264656670E-030
  0.82100000000000017          2.8873182075680576E-030
  0.82400000000000007          2.9054925536095712E-030
  0.82700000000000018          2.4073906327419444E-030
  0.83000000000000007          1.3100038649172143E-030
  0.83300000000000018         -3.9056988935673636E-031
  0.83600000000000008         -2.5933242757054951E-030
  0.83900000000000019         -5.0768402425378842E-030
  0.84200000000000008         -7.4998688703054588E-030
  0.84500000000000020         -9.4227207087783241E-030
  0.84800000000000009         -1.0352064170712485E-029
  0.85100000000000020         -9.8084127460547486E-030
  0.85400000000000009         -7.4117088932404025E-030
  0.85700000000000021         -2.9758941866868124E-030
  0.86000000000000010          3.4005970154231007E-030
  0.86300000000000021          1.1264669088852344E-029
  0.86600000000000010          1.9776133141819700E-029
  0.86900000000000022          2.7729235562403698E-029
  0.87200000000000011          3.3640162088419917E-029
  0.87500000000000022          3.5905281163396314E-029
  0.87800000000000011          3.3024766924041167E-029
  0.88100000000000001          2.3874564446737495E-029
  0.88400000000000012          7.9970439130546598E-030
  0.88700000000000001         -1.4130139810081686E-029
  0.89000000000000012         -4.0895400338807058E-029
  0.89300000000000002         -6.9475226510268580E-029
  0.89600000000000013         -9.5922574392648745E-029
  0.89900000000000002         -1.1545408131338161E-028
  0.90200000000000014         -1.2294707513538236E-028
  0.90500000000000003         -1.1362831418558254E-028
  0.90800000000000014         -8.3902930070592508E-029
  0.91100000000000003         -3.2237111314870566E-029
  0.91400000000000015          4.0022865019996649E-029
  0.91700000000000004          1.2803419084497874E-028
  0.92000000000000015          2.2318982414567953E-028
  0.92300000000000004          3.1333301637464591E-028
  0.92600000000000016          3.8355233811744430E-028
  0.92900000000000005          4.1759798113613714E-028
  0.93200000000000016          3.9988065284998877E-028
  0.93500000000000005          3.1792212960900389E-028
  0.93800000000000017          1.6502585862987705E-028
  0.94100000000000006         -5.7150252484618194E-029
  0.94400000000000017         -3.3651280789036571E-028
  0.94700000000000006         -6.4936400392758626E-028
  0.95000000000000018         -9.6055043056679499E-028
  0.95300000000000007         -1.2252588109346363E-027
  0.95600000000000018         -1.3926402339310621E-027
  0.95900000000000007         -1.4112498940092051E-027
  0.96200000000000019         -1.2360299506208660E-027
  0.96500000000000008         -8.3628649686556466E-028
  0.96800000000000019         -2.0384322465305395E-028
  0.97100000000000009          6.3969755374952541E-028
  0.97400000000000020          1.6377790219878343E-027
  0.97700000000000009          2.6970601267651525E-027
  0.98000000000000020          3.6900353467442846E-027
  0.98300000000000010          4.4629192612778690E-027
  0.98600000000000021          4.8491286963885206E-027
  0.98900000000000010          4.6880465162642035E-027
  0.99200000000000021          3.8479659385248296E-027
  0.99500000000000011          2.2513205504022812E-027
  0.99800000000000022         -1.0050368363359614E-028
   1.0010000000000001         -3.1061004487860698E-027
   1.0040000000000002         -6.5503990943333225E-027
   1.0070000000000001         -1.0102136833430994E-026
   1.0100000000000000         -1.3325653147408203E-026
   1.0130000000000001         -1.5709180557054009E-026
   1.0160000000000000         -1.6710329245167725E-026
   1.0190000000000001         -1.5817421332957393E-026
   1.0220000000000000         -1.2623006447771421E-026
   1.0250000000000001         -6.9034851483922070E-027
   1.0280000000000000          1.3036147108845226E-027
   1.0310000000000001          1.1634933221321344E-026
   1.0340000000000000          2.3360463969025945E-026
   1.0370000000000001          3.5377788135785503E-026
   1.0400000000000000          4.6251071771564515E-026
   1.0430000000000001          5.4301568480225965E-026
   1.0460000000000000          5.7751473868075054E-026
   1.0490000000000002          5.4917482397619877E-026
   1.0520000000000000          4.4442844994704441E-026
   1.0550000000000002          2.5549770181577155E-026
   1.0580000000000001         -1.7133840055066274E-027
   1.0610000000000002         -3.6261116067876150E-026
   1.0640000000000001         -7.5830713004859718E-026
   1.0670000000000002         -1.1694764460952881E-025
   1.0700000000000001         -1.5502764986248698E-025
   1.0730000000000002         -1.8463748872240132E-025
   1.0760000000000001         -1.9992384216449248E-025
   1.0790000000000002         -1.9520232358350282E-025
   1.0820000000000001         -1.6567673857397561E-025
   1.0850000000000002         -1.0823787017378051E-025
   1.0880000000000001         -2.2267889925922313E-026
   1.0910000000000002          8.9641830972834905E-026
   1.0940000000000001          2.2116519650601784E-025
   1.0970000000000002          3.6201566776958332E-025
