 -0.39999999999999997          0.0000000000000000     
 -0.39699999999999996          0.0000000000000000     
 -0.39399999999999996          0.0000000000000000     
 -0.39099999999999996          0.0000000000000000     
 -0.38799999999999996          0.0000000000000000     
 -0.38499999999999995          0.0000000000000000     
 -0.38199999999999995          0.0000000000000000     
 -0.37899999999999995          0.0000000000000000     
 -0.37599999999999995          0.0000000000000000     
 -0.37299999999999994          0.0000000000000000     
 -0.37000000000000000          0.0000000000000000     
 -0.36699999999999999          0.0000000000000000     
 -0.36399999999999999          0.0000000000000000     
 -0.36099999999999999          0.0000000000000000     
 -0.35799999999999998          0.0000000000000000     
 -0.35499999999999998          0.0000000000000000     
 -0.35199999999999998          0.0000000000000000     
 -0.34899999999999998          0.0000000000000000     
 -0.34599999999999997          0.0000000000000000     
 -0.34299999999999997          0.0000000000000000     
 -0.33999999999999997          0.0000000000000000     
 -0.33699999999999997          0.0000000000000000     
 -0.33399999999999996          0.0000000000000000     
 -0.33099999999999996          0.0000000000000000     
 -0.32799999999999996          0.0000000000000000     
 -0.32499999999999996          0.0000000000000000     
 -0.32199999999999995          0.0000000000000000     
 -0.31899999999999995          0.0000000000000000     
 -0.31599999999999995          0.0000000000000000     
 -0.31299999999999994          1.5765994735366995E-042
 -0.30999999999999994         -1.9209291943108616E-042
 -0.30699999999999994          1.5567166245469915E-041
 -0.30399999999999994         -2.1893547104088609E-040
 -0.30099999999999993          1.9875597231374515E-039
 -0.29799999999999993         -4.5103890878380477E-039
 -0.29499999999999998         -1.8017402657926986E-038
 -0.29199999999999998          5.9218490499467561E-038
 -0.28899999999999998          1.7404325996462348E-038
 -0.28599999999999998         -5.0241356367621611E-037
 -0.28299999999999997          7.6873082896307615E-037
 -0.27999999999999997          2.4747605349474011E-036
 -0.27699999999999997         -9.1335182589963486E-036
 -0.27399999999999997         -4.2685759622324904E-036
 -0.27099999999999996          6.4193543674932123E-035
 -0.26799999999999996         -4.6017031332278187E-035
 -0.26499999999999996         -3.3290356613790817E-034
 -0.26199999999999996          5.7078640486998415E-034
 -0.25899999999999995          1.3393707049785122E-033
 -0.25599999999999995         -4.0160495477775010E-033
 -0.25300000000000000         -4.0501910561757133E-033
 -0.24999999999999997          2.2073474688259592E-032
 -0.24699999999999997          7.1471372735731444E-033
 -0.24399999999999997         -1.0379920269429504E-031
 -0.24099999999999996          1.1831389417297452E-032
 -0.23799999999999996          4.3649189223457980E-031
 -0.23499999999999996         -1.8187614525944719E-031
 -0.23199999999999996         -1.6869681594048289E-030
 -0.22899999999999995          1.0443280471672362E-030
 -0.22599999999999995          6.1046217809069023E-030
 -0.22299999999999998         -4.4458594872599069E-030
 -0.21999999999999997         -2.0930252979851249E-029
 -0.21699999999999997          1.5553106033434345E-029
 -0.21399999999999997          6.8333897871255688E-029
 -0.21099999999999997         -4.5415348721103180E-029
 -0.20799999999999996         -2.1195053509070774E-028
 -0.20499999999999996          1.0616630053124150E-028
 -0.20199999999999996          6.1832305008890454E-028
 -0.19899999999999995         -1.6367527293113688E-028
 -0.19599999999999995         -1.6656003201393637E-027
 -0.19299999999999995         -5.7535136059101594E-029
 -0.18999999999999997          4.0197578412401779E-027
 -0.18699999999999997          1.6230806252727266E-027
 -0.18399999999999997         -8.2307939929894200E-027
 -0.18099999999999997         -7.3829953298987703E-027
 -0.17799999999999996          1.2514177381221696E-026
 -0.17499999999999996          2.2206201868713831E-026
 -0.17199999999999996         -6.4726025153553834E-027
 -0.16899999999999996         -4.6712278476044933E-026
 -0.16599999999999995         -3.8476091850102367E-026
 -0.16299999999999995          5.0348426637587564E-026
 -0.15999999999999998          1.6267842564576553E-025
 -0.15699999999999997          8.9204620731334123E-026
 -0.15399999999999997         -3.2890457321950549E-025
 -0.15099999999999997         -6.2829124751317094E-025
 -0.14799999999999996          1.4362208018042341E-025
 -0.14499999999999996          1.7064640949673751E-024
 -0.14199999999999996          1.5199029651360193E-024
 -0.13899999999999996         -2.2210719236518009E-024
 -0.13599999999999995         -5.9721370195775736E-024
 -0.13299999999999995         -2.2378664820213276E-024
 -0.12999999999999995          1.0550531848587196E-023
 -0.12699999999999995          1.8781391041509161E-023
 -0.12399999999999994          7.3014145504549529E-025
 -0.12099999999999994         -4.2649977831166023E-023
 -0.11799999999999994         -5.9295119898767741E-023
 -0.11499999999999994          1.8887485408297896E-023
 -0.11199999999999993          1.6184734959165067E-022
 -0.10899999999999999          1.7678539705798961E-022
 -0.10599999999999998         -1.2229959313404137E-022
 -0.10299999999999998         -5.6458231869633292E-022
  -9.9999999999999978E-002    -5.2088099652711544E-022
  -9.6999999999999975E-002     5.1221148205889912E-022
  -9.3999999999999972E-002     1.8924012280802758E-021
  -9.0999999999999970E-002     1.6148830643991535E-021
  -8.7999999999999967E-002    -1.8167720568338171E-021
  -8.4999999999999964E-002    -6.2292771437494171E-021
  -8.1999999999999962E-002    -5.2537701995149285E-021
  -7.8999999999999959E-002     5.7285939725516176E-021
  -7.5999999999999956E-002     1.9984707185480241E-020
  -7.2999999999999954E-002     1.7890549333851976E-020
  -6.9999999999999951E-002    -1.5626275101508786E-020
  -6.6999999999999948E-002    -6.2254275187749905E-020
  -6.3999999999999946E-002    -6.2965802625149427E-020
  -6.0999999999999943E-002     3.4123004813247479E-020
  -5.7999999999999940E-002     1.8645467750089562E-019
  -5.4999999999999938E-002     2.2177481444730282E-019
  -5.1999999999999935E-002    -3.9239418096925951E-020
  -4.8999999999999932E-002    -5.2472823421330407E-019
  -4.5999999999999985E-002    -7.5905614609078671E-019
  -4.2999999999999983E-002    -1.3870717137337423E-019
  -3.9999999999999980E-002     1.3367537311927565E-018
  -3.6999999999999977E-002     2.4613429762478619E-018
  -3.3999999999999975E-002     1.3037834911576444E-018
  -3.0999999999999972E-002    -2.8524390444300792E-018
  -2.7999999999999969E-002    -7.3548995450233706E-018
  -2.4999999999999967E-002    -6.4864659233779747E-018
  -2.1999999999999964E-002     3.9038517439670381E-018
  -1.8999999999999961E-002     1.9503341116779101E-017
  -1.5999999999999959E-002     2.5155252173687508E-017
  -1.2999999999999956E-002     4.0525256752995900E-018
  -9.9999999999999534E-003    -4.2687555499389918E-017
  -6.9999999999999507E-003    -8.1044114245241692E-017
  -3.9999999999999480E-003    -5.5927097746028518E-017
  -9.9999999999994538E-004     6.1221346599327494E-017
   2.0000000000000573E-003     2.1481771031840721E-016
   5.0000000000000600E-003     2.5632395825501509E-016
   8.0000000000000626E-003     3.5366051958846871E-017
   1.1000000000000065E-002    -4.2961664354095204E-016
   1.4000000000000068E-002    -8.2702954528812773E-016
   1.7000000000000015E-002    -6.4974119252820283E-016
   2.0000000000000018E-002     4.1173454505217847E-016
   2.3000000000000020E-002     1.9665464308813377E-015
   2.6000000000000023E-002     2.7591997232157434E-015
   2.9000000000000026E-002     1.2850233195425967E-015
   3.2000000000000028E-002    -2.8391722259944759E-015
   3.5000000000000031E-002    -7.5639963486704867E-015
   3.8000000000000034E-002    -8.5302345767431985E-015
   4.1000000000000036E-002    -1.6086681018048405E-015
   4.4000000000000039E-002     1.2802984336870124E-014
   4.7000000000000042E-002     2.6587387232217540E-014
   5.0000000000000044E-002     2.5733611312573791E-014
   5.3000000000000047E-002    -8.0453244262559261E-016
   5.6000000000000050E-002    -4.8348811603612696E-014
   5.9000000000000052E-002    -8.8848647212889973E-014
   6.2000000000000055E-002    -7.9102644693347358E-014
   6.5000000000000058E-002     1.1190746463814725E-014
   6.8000000000000060E-002     1.6260614224832271E-013
   7.1000000000000063E-002     2.8684325936368961E-013
   7.4000000000000066E-002     2.5426596901384258E-013
   7.7000000000000068E-002    -2.3710639068497360E-014
   8.0000000000000016E-002    -4.9055551036308180E-013
   8.3000000000000018E-002    -8.9175910450963291E-013
   8.6000000000000021E-002    -8.5001553764118171E-013
   8.9000000000000024E-002    -8.8736013973189793E-014
   9.2000000000000026E-002     1.2824767488052543E-012
   9.5000000000000029E-002     2.6069015953848292E-012
   9.8000000000000032E-002     2.8419166666797466E-012
  0.10100000000000003          1.1054721043547930E-012
  0.10400000000000004         -2.5824957413490127E-012
  0.10700000000000004         -6.7963136116612843E-012
  0.11000000000000004         -8.9188241586335665E-012
  0.11300000000000004         -6.2830778998102811E-012
  0.11600000000000005          2.0869874208283738E-012
  0.11900000000000005          1.4008637993682154E-011
  0.12200000000000005          2.3999291380580790E-011
  0.12500000000000006          2.5085014320092594E-011
  0.12800000000000006          1.2207682399999826E-011
  0.13100000000000006         -1.4186925709245550E-011
  0.13400000000000006         -4.6322791583890926E-011
  0.13700000000000007         -7.0501377403221716E-011
  0.14000000000000007         -7.1811444100713907E-011
  0.14300000000000007         -4.0512957948758939E-011
  0.14600000000000007          2.2602257073644655E-011
  0.14900000000000008          1.0434691927416654E-010
  0.15200000000000008          1.8176053744591838E-010
  0.15500000000000008          2.2821598762989184E-010
  0.15800000000000008          2.2058301339296883E-010
  0.16100000000000009          1.4486807343483877E-010
  0.16400000000000009         -1.1980980417471920E-012
  0.16700000000000009         -2.0868517094279376E-010
  0.17000000000000010         -4.6019144220873741E-010
  0.17300000000000010         -7.3381268157092323E-010
  0.17600000000000010         -1.0078862756374388E-009
  0.17899999999999999         -1.2663206395081650E-009
  0.18200000000000000         -1.5038543673587266E-009
  0.18500000000000000         -1.7297001135567031E-009
  0.18800000000000000         -1.9676108858892354E-009
  0.19100000000000000         -2.2513109923962717E-009
  0.19400000000000001         -2.6163728300902741E-009
  0.19700000000000001         -3.0918618298170328E-009
  0.20000000000000001         -3.6957708022616816E-009
  0.20300000000000001         -4.4366765088199801E-009
  0.20600000000000002         -5.3207426042851339E-009
  0.20900000000000002         -6.3601743704103430E-009
  0.21200000000000002         -7.5784772325061202E-009
  0.21500000000000002         -9.0099426046581179E-009
  0.21800000000000003         -1.0694516764796966E-008
  0.22100000000000003         -1.2672198132987986E-008
  0.22400000000000003         -1.4981346432190377E-008
  0.22700000000000004         -1.7662632696095417E-008
  0.23000000000000004         -2.0766641339463146E-008
  0.23300000000000004         -2.4360704931687393E-008
  0.23600000000000004         -2.8531122865438075E-008
  0.23900000000000005         -3.3379832032867927E-008
  0.24200000000000005         -3.9017936215882260E-008
  0.24500000000000005         -4.5560180788726644E-008
  0.24800000000000005         -5.3123845981580002E-008
  0.25100000000000006         -6.1832180563294273E-008
  0.25400000000000006         -7.1820525106779027E-008
  0.25700000000000006         -8.3242324832757950E-008
  0.26000000000000006         -9.6272429991298220E-008
  0.26300000000000007         -1.1110817429045156E-007
  0.26600000000000007         -1.2796843806778855E-007
  0.26900000000000007         -1.4709317050610876E-007
  0.27200000000000008         -1.6874362685856121E-007
  0.27500000000000008         -1.9320314775827723E-007
  0.27800000000000008         -2.2077796531934076E-007
  0.28100000000000008         -2.5179788971372127E-007
  0.28400000000000009         -2.8661677791718386E-007
  0.28700000000000009         -3.2561306351896783E-007
  0.29000000000000009         -3.6918982679026082E-007
  0.29300000000000009         -4.1777441319698279E-007
  0.29600000000000010         -4.7181894833820352E-007
  0.29900000000000010         -5.3179596574163855E-007
  0.30200000000000010         -5.9819647162358042E-007
  0.30499999999999999         -6.7152571287079290E-007
  0.30800000000000000         -7.5230012297928317E-007
  0.31100000000000000         -8.4104456689207907E-007
  0.31400000000000000         -9.3828853197794696E-007
  0.31700000000000000         -1.0445661505044072E-006
  0.32000000000000001         -1.1604100749391324E-006
  0.32300000000000001         -1.2863468036420649E-006
  0.32600000000000001         -1.4228863698771032E-006
  0.32900000000000001         -1.5705109623427421E-006
  0.33200000000000002         -1.7296687900560048E-006
  0.33500000000000002         -1.9007614495714130E-006
  0.33800000000000002         -2.0841312762882043E-006
  0.34100000000000003         -2.2800614003486910E-006
  0.34400000000000003         -2.4887525194488983E-006
  0.34700000000000003         -2.7103125849029261E-006
  0.35000000000000003         -2.9447387710765875E-006
  0.35300000000000004         -3.1919099930560914E-006
  0.35600000000000004         -3.4515675038677811E-006
  0.35900000000000004         -3.7233059133848771E-006
  0.36200000000000004         -4.0065605330400111E-006
  0.36500000000000005         -4.3005935884350031E-006
  0.36800000000000005         -4.6044863134499358E-006
  0.37100000000000005         -4.9171010431165132E-006
  0.37400000000000005         -5.2370947304387626E-006
  0.37700000000000006         -5.5628976713000159E-006
  0.38000000000000006         -5.8927115609236699E-006
  0.38300000000000006         -6.2245020134483640E-006
  0.38600000000000007         -6.5559937236629157E-006
  0.38900000000000007         -6.8846742973043844E-006
  0.39200000000000007         -7.2077815036889836E-006
  0.39500000000000007         -7.5223359377331428E-006
  0.39800000000000008         -7.8251269780816752E-006
  0.40100000000000008         -8.1127275684541938E-006
  0.40400000000000008         -8.3815209061520208E-006
  0.40700000000000008         -8.6276932995382513E-006
  0.41000000000000009         -8.8472826284799764E-006
  0.41300000000000009         -9.0361935125489377E-006
  0.41600000000000009         -9.1902536433168060E-006
  0.41900000000000009         -9.3052485495872887E-006
  0.42200000000000010         -9.3769445995796395E-006
  0.42500000000000010         -9.4011257618995365E-006
  0.42800000000000010         -9.3736752095192709E-006
  0.43100000000000011         -9.2906004418642987E-006
  0.43400000000000000         -9.1481056726521823E-006
  0.43700000000000000         -8.9426151729861752E-006
  0.44000000000000000         -8.6708750263574362E-006
  0.44300000000000000         -8.3299905396461298E-006
  0.44600000000000001         -7.9174742832676861E-006
  0.44900000000000001         -7.4313364119285399E-006
  0.45200000000000001         -6.8700828715260006E-006
  0.45500000000000002         -6.2328677559653830E-006
  0.45800000000000002         -5.5194296024126317E-006
  0.46100000000000002         -4.7302314805795034E-006
  0.46400000000000002         -3.8664043154748005E-006
  0.46700000000000003         -2.9299087170979368E-006
  0.47000000000000003         -1.9234382676126904E-006
  0.47300000000000003         -8.5046272243230278E-007
  0.47600000000000003          2.8468491809683077E-007
  0.47900000000000004          1.4769255187551212E-006
  0.48200000000000004          2.7203255242852763E-006
  0.48500000000000004          4.0081939080912233E-006
  0.48800000000000004          5.3331089947976772E-006
  0.49100000000000005          6.6869366569065602E-006
  0.49400000000000005          8.0608981035373422E-006
  0.49700000000000005          9.4456605041736620E-006
  0.50000000000000000          1.0831332575615663E-005
  0.50300000000000011          1.2207592971582775E-005
  0.50600000000000001          1.3563822722380955E-005
  0.50900000000000012          1.4889179686055856E-005
  0.51200000000000001          1.6172682993078096E-005
  0.51500000000000012          1.7403368955314125E-005
  0.51800000000000002          1.8570356902807885E-005
  0.52100000000000013          1.9662980306355822E-005
  0.52400000000000002          2.0670934105093409E-005
  0.52700000000000014          2.1584393163601043E-005
  0.53000000000000003          2.2394092355896459E-005
  0.53300000000000014          2.3091513376837128E-005
  0.53600000000000003          2.3668919653948211E-005
  0.53900000000000015          2.4119511342079909E-005
  0.54200000000000004          2.4437460389582374E-005
  0.54500000000000015          2.4618006402786833E-005
  0.54800000000000004          2.4657607375084382E-005
  0.55100000000000016          2.4553922918646848E-005
  0.55400000000000005          2.4305872326607726E-005
  0.55700000000000016          2.3913650315328341E-005
  0.56000000000000005          2.3378769416169129E-005
  0.56299999999999994          2.2704015056837133E-005
  0.56600000000000006          2.1893476507992283E-005
  0.56899999999999995          2.0952494357005942E-005
  0.57200000000000006          1.9887627359720079E-005
  0.57499999999999996          1.8706529689751269E-005
  0.57800000000000007          1.7417908487207449E-005
  0.58099999999999996          1.6031418489597674E-005
  0.58400000000000007          1.4557605566648560E-005
  0.58699999999999997          1.3007792580903378E-005
  0.59000000000000008          1.1393946942476195E-005
  0.59299999999999997          9.7285315490713254E-006
  0.59600000000000009          8.0242998912082677E-006
  0.59899999999999998          6.2942659526318317E-006
  0.60200000000000009          4.5515393251295391E-006
  0.60500000000000020          2.8091004445913987E-006
  0.60800000000000010          1.0798650415768944E-006
  0.61100000000000021         -6.2362756681616018E-007
  0.61400000000000010         -2.2892730600108492E-006
  0.61700000000000021         -3.9055600655446725E-006
  0.62000000000000011         -5.4616502546804189E-006
  0.62300000000000022         -6.9474525506815185E-006
  0.62600000000000011         -8.3537716601516567E-006
  0.62900000000000000         -9.6723476093802042E-006
  0.63200000000000012         -1.0895884680631307E-005
  0.63500000000000001         -1.2018166402488582E-005
  0.63800000000000012         -1.3034075539895488E-005
  0.64100000000000001         -1.3939578131146932E-005
  0.64400000000000013         -1.4731740132127258E-005
  0.64700000000000002         -1.5408745593386648E-005
  0.65000000000000013         -1.5969865322453526E-005
  0.65300000000000002         -1.6415419848135629E-005
  0.65600000000000014         -1.6746749280532708E-005
  0.65900000000000003         -1.6966186083057630E-005
  0.66200000000000014         -1.7076882714674674E-005
  0.66500000000000004         -1.7082873123955701E-005
  0.66800000000000015         -1.6988859730154802E-005
  0.67100000000000004         -1.6800263771958114E-005
  0.67400000000000015         -1.6523066136559263E-005
  0.67700000000000005         -1.6163738561401501E-005
  0.68000000000000016         -1.5729138905509997E-005
  0.68300000000000005         -1.5226420819507306E-005
  0.68600000000000017         -1.4662950051143553E-005
  0.68900000000000006         -1.4046236744403338E-005
  0.69200000000000017         -1.3383837460182487E-005
  0.69500000000000006         -1.2683233996487504E-005
  0.69800000000000018         -1.1951844430517729E-005
  0.70100000000000007         -1.1196853723589644E-005
  0.70400000000000018         -1.0425190371747750E-005
  0.70700000000000007         -9.6434784011729048E-006
  0.71000000000000019         -8.8580273844160498E-006
  0.71300000000000008         -8.0747617015521495E-006
  0.71600000000000019         -7.2991800595515516E-006
  0.71900000000000008         -6.5363332385572038E-006
  0.72200000000000020         -5.7908095411099808E-006
  0.72500000000000009         -5.0666538749600918E-006
  0.72800000000000020         -4.3674228689824916E-006
  0.73100000000000009         -3.6962166497506643E-006
  0.73400000000000021         -3.0556585089266757E-006
  0.73700000000000010         -2.4478799764117449E-006
  0.74000000000000021         -1.8745925395941004E-006
  0.74300000000000010         -1.3370893572350012E-006
  0.74600000000000022         -8.3620860489339753E-007
  0.74900000000000011         -3.7237936768045368E-007
  0.75200000000000022          5.4297269263803511E-008
  0.75500000000000012          4.4405457639854476E-007
  0.75800000000000001          7.9745489284397351E-007
  0.76100000000000012          1.1152942949126181E-006
  0.76400000000000001          1.3985596436692120E-006
  0.76700000000000013          1.6484639823286845E-006
  0.77000000000000002          1.8664192965838369E-006
  0.77300000000000013          2.0539511003956586E-006
  0.77600000000000002          2.2126887614546756E-006
  0.77900000000000014          2.3443957951153117E-006
  0.78200000000000003          2.4508850637788305E-006
  0.78500000000000014          2.5339460703941986E-006
  0.78800000000000003          2.5953938245292552E-006
  0.79100000000000015          2.6370670569312632E-006
  0.79400000000000004          2.6607619879998930E-006
  0.79700000000000015          2.6682087802008999E-006
  0.80000000000000004          2.6611379953580591E-006
  0.80300000000000016          2.6412204032699001E-006
  0.80600000000000005          2.6100070663797389E-006
  0.80900000000000016          2.5689576164970833E-006
  0.81200000000000006          2.5194896408957588E-006
  0.81500000000000017          2.4629122469301027E-006
  0.81800000000000006          2.4004103527996268E-006
  0.82100000000000017          2.3331102418737259E-006
  0.82400000000000007          2.2620653004893244E-006
  0.82700000000000018          2.1881985154149355E-006
  0.83000000000000007          2.1123205534158305E-006
  0.83300000000000018          2.0351949768192884E-006
  0.83600000000000008          1.9575043997491810E-006
  0.83900000000000019          1.8798252735039548E-006
  0.84200000000000008          1.8026715934043878E-006
  0.84500000000000020          1.7265114916385400E-006
  0.84800000000000009          1.6517133534804541E-006
  0.85100000000000020          1.5785539484518925E-006
  0.85400000000000009          1.5072792800444726E-006
  0.85700000000000021          1.4381065169971771E-006
  0.86000000000000010          1.3711890814294124E-006
  0.86300000000000021          1.3066446559866024E-006
  0.86600000000000010          1.2445752854109515E-006
  0.86900000000000022          1.1850332909060899E-006
  0.87200000000000011          1.1280074351388867E-006
  0.87500000000000022          1.0734712472641709E-006
  0.87800000000000011          1.0214036826429019E-006
  0.88100000000000001          9.7176030796186210E-007
  0.88400000000000012          9.2448042041586016E-007
  0.88700000000000001          8.7950645017348093E-007
  0.89000000000000012          8.3677025475936288E-007
  0.89300000000000002          7.9617415403140231E-007
  0.89600000000000013          7.5761286302284535E-007
  0.89900000000000002          7.2099697231859936E-007
  0.90200000000000014          6.8624004017252766E-007
  0.90500000000000003          6.5324744129018119E-007
  0.90800000000000014          6.2192645305371868E-007
  0.91100000000000003          5.9219169375836592E-007
  0.91400000000000015          5.6395350630499595E-007
  0.91700000000000004          5.3711874776794944E-007
  0.92000000000000015          5.1160814999186576E-007
  0.92300000000000004          4.8736114744619956E-007
  0.92600000000000016          4.6431870637680074E-007
  0.92900000000000005          4.4241654719071278E-007
  0.93200000000000016          4.2159625541032800E-007
  0.93500000000000005          4.0180721812660680E-007
  0.93800000000000017          3.8299292254659060E-007
  0.94100000000000006          3.6509966794401607E-007
  0.94400000000000017          3.4809502425301224E-007
  0.94700000000000006          3.3195747747964847E-007
  0.95000000000000018          3.1665255632014672E-007
  0.95300000000000007          3.0214212297078012E-007
  0.95600000000000018          2.8839969771299266E-007
  0.95900000000000007          2.7539370923154735E-007
  0.96200000000000019          2.6308504219806899E-007
  0.96500000000000008          2.5145552652179546E-007
  0.96800000000000019          2.4050400726706943E-007
  0.97100000000000009          2.3021183888774571E-007
  0.97400000000000020          2.2054703284567161E-007
  0.97700000000000009          2.1148945034073466E-007
  0.98000000000000020          2.0301750816570020E-007
  0.98300000000000010          1.9509463652040613E-007
  0.98600000000000021          1.8769878448712142E-007
  0.98900000000000010          1.8082667622895438E-007
  0.99200000000000021          1.7445343827533114E-007
  0.99500000000000011          1.6853494167053560E-007
  0.99800000000000022          1.6304524749659761E-007
   1.0010000000000001          1.5796593882748201E-007
   1.0040000000000002          1.5326214948662763E-007
   1.0070000000000001          1.4891034648636368E-007
   1.0100000000000000          1.4490510412762523E-007
   1.0130000000000001          1.4121630855063689E-007
   1.0160000000000000          1.3779033074039203E-007
   1.0190000000000001          1.3459749391073619E-007
   1.0220000000000000          1.3162231125653259E-007
   1.0250000000000001          1.2883005484224634E-007
   1.0280000000000000          1.2619189670853858E-007
   1.0310000000000001          1.2370195689735012E-007
   1.0340000000000000          1.2133007130737363E-007
   1.0370000000000001          1.1902155181011391E-007
   1.0400000000000000          1.1675236303256828E-007
   1.0430000000000001          1.1452113915707297E-007
   1.0460000000000000          1.1230010687529351E-007
   1.0490000000000002          1.1006295746320733E-007
   1.0520000000000000          1.0781340015371793E-007
   1.0550000000000002          1.0553678026065133E-007
   1.0580000000000001          1.0319042202804866E-007
   1.0610000000000002          1.0076524939714787E-007
   1.0640000000000001          9.8280094224314561E-008
   1.0670000000000002          9.5719951590484780E-008
   1.0700000000000001          9.3061494028680860E-008
   1.0730000000000002          9.0318336806454474E-008
   1.0760000000000001          8.7495432892260638E-008
   1.0790000000000002          8.4564685150982152E-008
   1.0820000000000001          8.1530467614304944E-008
   1.0850000000000002          7.8434225251471795E-008
   1.0880000000000001          7.5282050790948336E-008
   1.0910000000000002          7.2060097046468075E-008
   1.0940000000000001          6.8795355295603559E-008
   1.0970000000000002          6.5516385509401389E-008
