 -0.39999999999999997          0.0000000000000000     
 -0.39699999999999996          0.0000000000000000     
 -0.39399999999999996          0.0000000000000000     
 -0.39099999999999996          0.0000000000000000     
 -0.38799999999999996          0.0000000000000000     
 -0.38499999999999995          0.0000000000000000     
 -0.38199999999999995          0.0000000000000000     
 -0.37899999999999995          0.0000000000000000     
 -0.37599999999999995          0.0000000000000000     
 -0.37299999999999994          0.0000000000000000     
 -0.37000000000000000          0.0000000000000000     
 -0.36699999999999999          0.0000000000000000     
 -0.36399999999999999          0.0000000000000000     
 -0.36099999999999999          0.0000000000000000     
 -0.35799999999999998          0.0000000000000000     
 -0.35499999999999998          0.0000000000000000     
 -0.35199999999999998          0.0000000000000000     
 -0.34899999999999998          0.0000000000000000     
 -0.34599999999999997          0.0000000000000000     
 -0.34299999999999997          0.0000000000000000     
 -0.33999999999999997          0.0000000000000000     
 -0.33699999999999997          0.0000000000000000     
 -0.33399999999999996          0.0000000000000000     
 -0.33099999999999996          0.0000000000000000     
 -0.32799999999999996          0.0000000000000000     
 -0.32499999999999996          0.0000000000000000     
 -0.32199999999999995          0.0000000000000000     
 -0.31899999999999995          0.0000000000000000     
 -0.31599999999999995          0.0000000000000000     
 -0.31299999999999994          0.0000000000000000     
 -0.30999999999999994          0.0000000000000000     
 -0.30699999999999994          0.0000000000000000     
 -0.30399999999999994          0.0000000000000000     
 -0.30099999999999993          0.0000000000000000     
 -0.29799999999999993          0.0000000000000000     
 -0.29499999999999998          0.0000000000000000     
 -0.29199999999999998          0.0000000000000000     
 -0.28899999999999998          0.0000000000000000     
 -0.28599999999999998          0.0000000000000000     
 -0.28299999999999997          0.0000000000000000     
 -0.27999999999999997          0.0000000000000000     
 -0.27699999999999997          0.0000000000000000     
 -0.27399999999999997          0.0000000000000000     
 -0.27099999999999996          0.0000000000000000     
 -0.26799999999999996          0.0000000000000000     
 -0.26499999999999996          0.0000000000000000     
 -0.26199999999999996          0.0000000000000000     
 -0.25899999999999995          0.0000000000000000     
 -0.25599999999999995          0.0000000000000000     
 -0.25300000000000000          0.0000000000000000     
 -0.24999999999999997          0.0000000000000000     
 -0.24699999999999997          0.0000000000000000     
 -0.24399999999999997          0.0000000000000000     
 -0.24099999999999996          0.0000000000000000     
 -0.23799999999999996          0.0000000000000000     
 -0.23499999999999996          0.0000000000000000     
 -0.23199999999999996          0.0000000000000000     
 -0.22899999999999995          0.0000000000000000     
 -0.22599999999999995          0.0000000000000000     
 -0.22299999999999998          0.0000000000000000     
 -0.21999999999999997          0.0000000000000000     
 -0.21699999999999997          0.0000000000000000     
 -0.21399999999999997          0.0000000000000000     
 -0.21099999999999997          0.0000000000000000     
 -0.20799999999999996          0.0000000000000000     
 -0.20499999999999996          0.0000000000000000     
 -0.20199999999999996          0.0000000000000000     
 -0.19899999999999995          0.0000000000000000     
 -0.19599999999999995          0.0000000000000000     
 -0.19299999999999995          0.0000000000000000     
 -0.18999999999999997          0.0000000000000000     
 -0.18699999999999997          0.0000000000000000     
 -0.18399999999999997          0.0000000000000000     
 -0.18099999999999997          0.0000000000000000     
 -0.17799999999999996          0.0000000000000000     
 -0.17499999999999996          0.0000000000000000     
 -0.17199999999999996          0.0000000000000000     
 -0.16899999999999996          0.0000000000000000     
 -0.16599999999999995          0.0000000000000000     
 -0.16299999999999995          0.0000000000000000     
 -0.15999999999999998          0.0000000000000000     
 -0.15699999999999997          0.0000000000000000     
 -0.15399999999999997          0.0000000000000000     
 -0.15099999999999997          0.0000000000000000     
 -0.14799999999999996          0.0000000000000000     
 -0.14499999999999996          0.0000000000000000     
 -0.14199999999999996          0.0000000000000000     
 -0.13899999999999996          0.0000000000000000     
 -0.13599999999999995          0.0000000000000000     
 -0.13299999999999995          0.0000000000000000     
 -0.12999999999999995          0.0000000000000000     
 -0.12699999999999995          0.0000000000000000     
 -0.12399999999999994          0.0000000000000000     
 -0.12099999999999994          0.0000000000000000     
 -0.11799999999999994          0.0000000000000000     
 -0.11499999999999994          0.0000000000000000     
 -0.11199999999999993          0.0000000000000000     
 -0.10899999999999999          0.0000000000000000     
 -0.10599999999999998          0.0000000000000000     
 -0.10299999999999998          0.0000000000000000     
  -9.9999999999999978E-002     0.0000000000000000     
  -9.6999999999999975E-002     0.0000000000000000     
  -9.3999999999999972E-002     0.0000000000000000     
  -9.0999999999999970E-002     0.0000000000000000     
  -8.7999999999999967E-002     0.0000000000000000     
  -8.4999999999999964E-002     0.0000000000000000     
  -8.1999999999999962E-002     0.0000000000000000     
  -7.8999999999999959E-002     0.0000000000000000     
  -7.5999999999999956E-002     0.0000000000000000     
  -7.2999999999999954E-002     0.0000000000000000     
  -6.9999999999999951E-002     0.0000000000000000     
  -6.6999999999999948E-002     0.0000000000000000     
  -6.3999999999999946E-002     0.0000000000000000     
  -6.0999999999999943E-002     0.0000000000000000     
  -5.7999999999999940E-002     0.0000000000000000     
  -5.4999999999999938E-002     0.0000000000000000     
  -5.1999999999999935E-002     0.0000000000000000     
  -4.8999999999999932E-002     0.0000000000000000     
  -4.5999999999999985E-002     0.0000000000000000     
  -4.2999999999999983E-002     0.0000000000000000     
  -3.9999999999999980E-002     0.0000000000000000     
  -3.6999999999999977E-002     0.0000000000000000     
  -3.3999999999999975E-002     0.0000000000000000     
  -3.0999999999999972E-002     0.0000000000000000     
  -2.7999999999999969E-002     0.0000000000000000     
  -2.4999999999999967E-002     0.0000000000000000     
  -2.1999999999999964E-002     0.0000000000000000     
  -1.8999999999999961E-002     0.0000000000000000     
  -1.5999999999999959E-002     0.0000000000000000     
  -1.2999999999999956E-002     0.0000000000000000     
  -9.9999999999999534E-003     0.0000000000000000     
  -6.9999999999999507E-003     0.0000000000000000     
  -3.9999999999999480E-003     0.0000000000000000     
  -9.9999999999994538E-004     0.0000000000000000     
   2.0000000000000573E-003     0.0000000000000000     
   5.0000000000000600E-003     0.0000000000000000     
   8.0000000000000626E-003     0.0000000000000000     
   1.1000000000000065E-002     0.0000000000000000     
   1.4000000000000068E-002     0.0000000000000000     
   1.7000000000000015E-002     0.0000000000000000     
   2.0000000000000018E-002     0.0000000000000000     
   2.3000000000000020E-002     0.0000000000000000     
   2.6000000000000023E-002     0.0000000000000000     
   2.9000000000000026E-002     0.0000000000000000     
   3.2000000000000028E-002     0.0000000000000000     
   3.5000000000000031E-002     0.0000000000000000     
   3.8000000000000034E-002     0.0000000000000000     
   4.1000000000000036E-002     0.0000000000000000     
   4.4000000000000039E-002     0.0000000000000000     
   4.7000000000000042E-002     0.0000000000000000     
   5.0000000000000044E-002     0.0000000000000000     
   5.3000000000000047E-002     0.0000000000000000     
   5.6000000000000050E-002     0.0000000000000000     
   5.9000000000000052E-002     0.0000000000000000     
   6.2000000000000055E-002     0.0000000000000000     
   6.5000000000000058E-002     0.0000000000000000     
   6.8000000000000060E-002     0.0000000000000000     
   7.1000000000000063E-002     0.0000000000000000     
   7.4000000000000066E-002     0.0000000000000000     
   7.7000000000000068E-002     0.0000000000000000     
   8.0000000000000016E-002     0.0000000000000000     
   8.3000000000000018E-002     0.0000000000000000     
   8.6000000000000021E-002     0.0000000000000000     
   8.9000000000000024E-002     0.0000000000000000     
   9.2000000000000026E-002     0.0000000000000000     
   9.5000000000000029E-002     0.0000000000000000     
   9.8000000000000032E-002     0.0000000000000000     
  0.10100000000000003          0.0000000000000000     
  0.10400000000000004          0.0000000000000000     
  0.10700000000000004          0.0000000000000000     
  0.11000000000000004          0.0000000000000000     
  0.11300000000000004          0.0000000000000000     
  0.11600000000000005          0.0000000000000000     
  0.11900000000000005          0.0000000000000000     
  0.12200000000000005          0.0000000000000000     
  0.12500000000000006          0.0000000000000000     
  0.12800000000000006          0.0000000000000000     
  0.13100000000000006          0.0000000000000000     
  0.13400000000000006          0.0000000000000000     
  0.13700000000000007          0.0000000000000000     
  0.14000000000000007          0.0000000000000000     
  0.14300000000000007          0.0000000000000000     
  0.14600000000000007          0.0000000000000000     
  0.14900000000000008          0.0000000000000000     
  0.15200000000000008          0.0000000000000000     
  0.15500000000000008          0.0000000000000000     
  0.15800000000000008          0.0000000000000000     
  0.16100000000000009          0.0000000000000000     
  0.16400000000000009          0.0000000000000000     
  0.16700000000000009          0.0000000000000000     
  0.17000000000000010          0.0000000000000000     
  0.17300000000000010          0.0000000000000000     
  0.17600000000000010          0.0000000000000000     
  0.17899999999999999          0.0000000000000000     
  0.18200000000000000          0.0000000000000000     
  0.18500000000000000          0.0000000000000000     
  0.18800000000000000          0.0000000000000000     
  0.19100000000000000          0.0000000000000000     
  0.19400000000000001          0.0000000000000000     
  0.19700000000000001          0.0000000000000000     
  0.20000000000000001          0.0000000000000000     
  0.20300000000000001          0.0000000000000000     
  0.20600000000000002          0.0000000000000000     
  0.20900000000000002          0.0000000000000000     
  0.21200000000000002          0.0000000000000000     
  0.21500000000000002          0.0000000000000000     
  0.21800000000000003          0.0000000000000000     
  0.22100000000000003          0.0000000000000000     
  0.22400000000000003          0.0000000000000000     
  0.22700000000000004          0.0000000000000000     
  0.23000000000000004          0.0000000000000000     
  0.23300000000000004          0.0000000000000000     
  0.23600000000000004          0.0000000000000000     
  0.23900000000000005          0.0000000000000000     
  0.24200000000000005          0.0000000000000000     
  0.24500000000000005          0.0000000000000000     
  0.24800000000000005          0.0000000000000000     
  0.25100000000000006          0.0000000000000000     
  0.25400000000000006          0.0000000000000000     
  0.25700000000000006          0.0000000000000000     
  0.26000000000000006          0.0000000000000000     
  0.26300000000000007          0.0000000000000000     
  0.26600000000000007          0.0000000000000000     
  0.26900000000000007          0.0000000000000000     
  0.27200000000000008          0.0000000000000000     
  0.27500000000000008          0.0000000000000000     
  0.27800000000000008          0.0000000000000000     
  0.28100000000000008          0.0000000000000000     
  0.28400000000000009          0.0000000000000000     
  0.28700000000000009          0.0000000000000000     
  0.29000000000000009          0.0000000000000000     
  0.29300000000000009          0.0000000000000000     
  0.29600000000000010          0.0000000000000000     
  0.29900000000000010          0.0000000000000000     
  0.30200000000000010          0.0000000000000000     
  0.30499999999999999          0.0000000000000000     
  0.30800000000000000          0.0000000000000000     
  0.31100000000000000          0.0000000000000000     
  0.31400000000000000          0.0000000000000000     
  0.31700000000000000          0.0000000000000000     
  0.32000000000000001          0.0000000000000000     
  0.32300000000000001          0.0000000000000000     
  0.32600000000000001          0.0000000000000000     
  0.32900000000000001          0.0000000000000000     
  0.33200000000000002          0.0000000000000000     
  0.33500000000000002          0.0000000000000000     
  0.33800000000000002          0.0000000000000000     
  0.34100000000000003          0.0000000000000000     
  0.34400000000000003          0.0000000000000000     
  0.34700000000000003          0.0000000000000000     
  0.35000000000000003         -3.7629583627702654E-042
  0.35300000000000004          4.4463057032520750E-042
  0.35600000000000004          9.3249919377865487E-042
  0.35900000000000004         -9.1236818115952106E-042
  0.36200000000000004         -2.1804487121938859E-041
  0.36500000000000005          4.4638420817232257E-041
  0.36800000000000005          5.7079665701523202E-040
  0.37100000000000005          6.8515666919650202E-040
  0.37400000000000005          5.2436238417723899E-040
  0.37700000000000006         -8.9403688047451898E-042
  0.38000000000000006         -8.3838206431906537E-040
  0.38300000000000006         -2.1404704625630202E-039
  0.38600000000000007         -3.2596951342310975E-039
  0.38900000000000007         -3.4053031660720748E-039
  0.39200000000000007         -3.2024928222083486E-040
  0.39500000000000007          4.8352158732101762E-039
  0.39800000000000008          1.1204207238722272E-038
  0.40100000000000008          1.6126505971669922E-038
  0.40400000000000008          1.7852487309887034E-038
  0.40700000000000008          2.5941013029038880E-038
  0.41000000000000009          2.1318815587581570E-038
  0.41300000000000009          3.5822086141838439E-039
  0.41600000000000009         -2.6955111570953023E-038
  0.41900000000000009         -6.6976444937047965E-038
  0.42200000000000010         -1.0909531835544687E-037
  0.42500000000000010         -1.3215574696995138E-037
  0.42800000000000010         -1.1508163896943891E-037
  0.43100000000000011         -3.9524578436404264E-038
  0.43400000000000000          1.0267353246448921E-037
  0.43700000000000000          2.9755072697209691E-037
  0.44000000000000000          5.0070149160660538E-037
  0.44300000000000000          6.3881786445067067E-037
  0.44600000000000001          6.1640361672282019E-037
  0.44900000000000001          3.4203213720595858E-037
  0.45200000000000001         -2.3711532352812173E-037
  0.45500000000000002         -1.0918087655574346E-036
  0.45800000000000002         -2.0716492214889195E-036
  0.46100000000000002         -2.8899985556527338E-036
  0.46400000000000002         -3.1500439106336068E-036
  0.46700000000000003         -2.4229663131172078E-036
  0.47000000000000003         -3.8164393955451435E-037
  0.47300000000000003          3.0246148501156157E-036
  0.47600000000000003          7.3954358638019341E-036
  0.47900000000000004          1.1766279145201425E-035
  0.48200000000000004          1.4625693026348328E-035
  0.48500000000000004          1.4125971613010285E-035
  0.48800000000000004          8.5220485424499356E-036
  0.49100000000000005         -3.1874166510678869E-036
  0.49400000000000005         -2.0524925682312801E-035
  0.49700000000000005         -4.0896459065621035E-035
  0.50000000000000000         -5.9304928807662831E-035
  0.50300000000000011         -6.8688547981466993E-035
  0.50600000000000001         -6.1095563019911806E-035
  0.50900000000000012         -2.9744561548608784E-035
  0.51200000000000001          2.8232333073390066E-035
  0.51500000000000012          1.0887366895086486E-034
  0.51800000000000002          1.9911339211434256E-034
  0.52100000000000013          2.7615606224193176E-034
  0.52400000000000002          3.0950069597096062E-034
  0.52700000000000014          2.6628421111628818E-034
  0.53000000000000003          1.1994858307706054E-034
  0.53300000000000014         -1.3873775333382505E-034
  0.53600000000000003         -4.9042756880282558E-034
  0.53900000000000015         -8.7887329655374636E-034
  0.54200000000000004         -1.2093245394506948E-033
  0.54500000000000015         -1.3572240177330285E-033
  0.54800000000000004         -1.1894978753491298E-033
  0.55100000000000016         -5.9821590262107836E-034
  0.55400000000000005          4.5716298786793280E-034
  0.55700000000000016          1.9067880224313661E-033
  0.56000000000000005          3.5382090030579024E-033
  0.56299999999999994          4.9886029539255930E-033
  0.56600000000000006          5.7743895896860748E-033
  0.56899999999999995          5.3668259995817559E-033
  0.57200000000000006          3.3135071669532764E-033
  0.57499999999999996         -6.0656387435590552E-034
  0.57800000000000007         -6.2204327191976650E-033
  0.58099999999999996         -1.2830942167029203E-032
  0.58400000000000007         -1.9165881701586184E-032
  0.58699999999999997         -2.3453938166312411E-032
  0.59000000000000008         -2.3661243017667466E-032
  0.59299999999999997         -1.7895794874073653E-032
  0.59600000000000009         -4.9478948216692933E-033
  0.59899999999999998          1.5112871547957169E-032
  0.60200000000000009          4.0408768838484505E-032
  0.60500000000000020          6.6952125218053066E-032
  0.60800000000000010          8.8736978616857918E-032
  0.61100000000000021          9.8360251068016024E-032
  0.61400000000000010          8.8235246805827228E-032
  0.61700000000000021          5.2341961308688059E-032
  0.62000000000000011         -1.1689507580929181E-032
  0.62300000000000022         -1.0052602477937794E-031
  0.62600000000000011         -2.0360147264521555E-031
  0.62900000000000000         -3.0267118356687539E-031
  0.63200000000000012         -3.7297343124455765E-031
  0.63500000000000001         -3.8634628614466054E-031
  0.63800000000000012         -3.1633425739825037E-031
  0.64100000000000001         -1.4487996460714135E-031
  0.64400000000000013          1.3030813105284106E-031
  0.64700000000000002          4.8911742552759106E-031
  0.65000000000000013          8.8485073405063063E-031
  0.65300000000000002          1.2443547764405102E-030
  0.65600000000000014          1.4740026605743084E-030
  0.65900000000000003          1.4723598124183721E-030
  0.66200000000000014          1.1492330057825249E-030
  0.66500000000000004          4.4929459770095833E-031
  0.66800000000000015         -6.2308754644898153E-031
  0.67100000000000004         -1.9826745304293393E-030
  0.67400000000000015         -3.4515675934757986E-030
  0.67700000000000005         -4.7625708714592688E-030
  0.68000000000000016         -5.5822924330426652E-030
  0.68300000000000005         -5.5560979918455582E-030
  0.68600000000000017         -4.3732696355241744E-030
  0.68900000000000006         -1.8459952134676806E-030
  0.69200000000000017          2.0089139318063016E-030
  0.69500000000000006          6.9011546693197201E-030
  0.69800000000000018          1.2228878922740012E-029
  0.70100000000000007          1.7089356577842470E-029
  0.70400000000000018          2.0352341016561719E-029
  0.70700000000000007          2.0802762090159434E-029
  0.71000000000000019          1.7347698773145911E-029
  0.71300000000000008          9.2691832039593647E-030
  0.71600000000000019         -3.5110764386362034E-030
  0.71900000000000008         -2.0201054767103131E-029
  0.72200000000000020         -3.8996038368192170E-029
  0.72500000000000009         -5.7080168652208000E-029
  0.72800000000000020         -7.0816020316643451E-029
  0.73100000000000009         -7.6148278902947244E-029
  0.73400000000000021         -6.9212586338440088E-029
  0.73700000000000010         -4.7104979288749798E-029
  0.74000000000000021         -8.7207639653843199E-030
  0.74300000000000010          4.4464099098089053E-029
  0.74600000000000022          1.0782929877438696E-028
  0.74900000000000011          1.7342651825664682E-028
  0.75200000000000022          2.3032736668519233E-028
  0.75500000000000012          2.6559776101911501E-028
  0.75800000000000001          2.6592531701782075E-028
  0.76100000000000012          2.1980569586145177E-028
  0.76400000000000001          1.2008939845302042E-028
  0.76700000000000013         -3.3447264482395016E-029
  0.77000000000000002         -2.3191900001998276E-028
  0.77300000000000013         -4.5603430227448087E-028
  0.77600000000000002         -6.7614148193330690E-028
  0.77900000000000014         -8.5400904032165728E-028
  0.78200000000000003         -9.4654658845740212E-028
  0.78500000000000014         -9.1142408191659360E-028
  0.78800000000000003         -7.1421193333118772E-028
  0.79100000000000015         -3.3633916472073843E-028
  0.79400000000000004          2.1718175206361193E-028
  0.79700000000000015          9.1153369748360671E-028
  0.80000000000000004          1.6788159642083873E-027
  0.80300000000000016          2.4190086378817524E-027
  0.80600000000000005          3.0062527875473194E-027
  0.80900000000000016          3.3009336351662528E-027
  0.81200000000000006          3.1673415834548978E-027
  0.81500000000000017          2.4957570329918693E-027
  0.81800000000000006          1.2268231034138921E-027
  0.82100000000000017         -6.2482275989369665E-028
  0.82400000000000007         -2.9514370866282817E-027
  0.82700000000000018         -5.5415357082751597E-027
  0.83000000000000007         -8.0818869194656778E-027
  0.83300000000000018         -1.0174946335538099E-026
  0.83600000000000008         -1.1373708362848068E-026
  0.83900000000000019         -1.1233381369202668E-026
  0.84200000000000008         -9.3771743981380286E-027
  0.84500000000000020         -5.5704007124897144E-027
  0.84800000000000009          2.0532509255548447E-028
  0.85100000000000020          7.6883671334291027E-027
  0.85400000000000009          1.6295762048668290E-026
  0.85700000000000021          2.5115765438499116E-026
  0.86000000000000010          3.2945027711343955E-026
  0.86300000000000021          3.8376527526654033E-026
  0.86600000000000010          3.9940083384510165E-026
  0.86900000000000022          3.6289916274543007E-026
  0.87200000000000011          2.6426331661400475E-026
  0.87500000000000022          9.9302571534055690E-027
  0.87800000000000011         -1.2818161968698625E-026
  0.88100000000000001         -4.0469818451072658E-026
  0.88400000000000012         -7.0622282542213117E-026
  0.88700000000000001         -9.9854352516911155E-026
  0.89000000000000012         -1.2390755290202090E-025
  0.89300000000000002         -1.3802729602638618E-025
  0.89600000000000013         -1.3746206079564158E-025
  0.89900000000000002         -1.1809848487996799E-025
  0.90200000000000014         -7.7180999277022214E-026
  0.90500000000000003         -1.4047541397227869E-026
  0.90800000000000014          6.9210445206967875E-026
  0.91100000000000003          1.6726942435028722E-025
  0.91400000000000015          2.7138620370272092E-025
  0.91700000000000004          3.6960317463071018E-025
  0.92000000000000015          4.4741838379545223E-025
  0.92300000000000004          4.8896201752309592E-025
  0.92600000000000016          4.7866071857710341E-025
  0.92900000000000005          4.0330356764984136E-025
  0.93200000000000016          2.5436425077967824E-025
  0.93500000000000005          3.0343098861522846E-026
  0.93800000000000017         -2.6115232500019171E-025
  0.94100000000000006         -6.0190572653324922E-025
  0.94400000000000017         -9.6253186169111945E-025
  0.94700000000000006         -1.3031311914927056E-024
  0.95000000000000018         -1.5754396600363691E-024
  0.95300000000000007         -1.7265455734918160E-024
  0.95600000000000018         -1.7041696669566407E-024
  0.95900000000000007         -1.4632570424790959E-024
  0.96200000000000019         -9.7338685526463625E-025
  0.96500000000000008         -2.2636432997613051E-025
  0.96800000000000019          7.5685940135812020E-025
  0.97100000000000009          1.9210374862954798E-024
  0.97400000000000020          3.1741929425325073E-024
  0.97700000000000009          4.3889367435429613E-024
  0.98000000000000020          5.4083316064206510E-024
  0.98300000000000010          6.0568027310905655E-024
  0.98600000000000021          6.1560273027368517E-024
  0.98900000000000010          5.5452645161298011E-024
  0.99200000000000021          4.1048379859905775E-024
  0.99500000000000011          1.7809296608486788E-024
  0.99800000000000022         -1.3909755993536301E-024
   1.0010000000000001         -5.2669386657744721E-024
   1.0040000000000002         -9.5829989193222687E-024
   1.0070000000000001         -1.3954428163037433E-023
   1.0100000000000000         -1.7888604355488407E-023
   1.0130000000000001         -2.0813604568083766E-023
   1.0160000000000000         -2.2122799396934336E-023
   1.0190000000000001         -2.1234943862813509E-023
   1.0220000000000000         -1.7666566453608923E-023
   1.0250000000000001         -1.1111657378340261E-023
   1.0280000000000000         -1.5217194743662040E-024
   1.0310000000000001          1.0822592922261907E-023
   1.0340000000000000          2.5258715129089160E-023
   1.0370000000000001          4.0717837531131652E-023
   1.0400000000000000          5.5739821646319393E-023
   1.0430000000000001          6.8534614502561221E-023
   1.0460000000000000          7.7095127412676435E-023
   1.0490000000000002          7.9362210842091675E-023
   1.0520000000000000          7.3436678765545006E-023
   1.0550000000000002          5.7826307167455611E-023
   1.0580000000000001          3.1710782746693422E-023
   1.0610000000000002         -4.7990167545918582E-024
   1.0640000000000001         -5.0438634093866039E-023
   1.0670000000000002         -1.0263521695524569E-022
   1.0700000000000001         -1.5745279407123037E-022
   1.0730000000000002         -2.0967067165864567E-022
   1.0760000000000001         -2.5301475026281290E-022
   1.0790000000000002         -2.8055957623234081E-022
   1.0820000000000001         -2.8529494179880168E-022
   1.0850000000000002         -2.6084314890905088E-022
   1.0880000000000001         -2.0228570906594112E-022
   1.0910000000000002         -1.0703862568590683E-022
   1.0940000000000001          2.4295551683491480E-023
   1.0970000000000002          1.8720059726856069E-022
