 -0.39999999999999997          0.0000000000000000     
 -0.39699999999999996          0.0000000000000000     
 -0.39399999999999996          0.0000000000000000     
 -0.39099999999999996          0.0000000000000000     
 -0.38799999999999996          0.0000000000000000     
 -0.38499999999999995          0.0000000000000000     
 -0.38199999999999995          0.0000000000000000     
 -0.37899999999999995          0.0000000000000000     
 -0.37599999999999995          0.0000000000000000     
 -0.37299999999999994          0.0000000000000000     
 -0.37000000000000000          0.0000000000000000     
 -0.36699999999999999          0.0000000000000000     
 -0.36399999999999999          0.0000000000000000     
 -0.36099999999999999          0.0000000000000000     
 -0.35799999999999998          0.0000000000000000     
 -0.35499999999999998          0.0000000000000000     
 -0.35199999999999998          0.0000000000000000     
 -0.34899999999999998          0.0000000000000000     
 -0.34599999999999997          0.0000000000000000     
 -0.34299999999999997          0.0000000000000000     
 -0.33999999999999997          0.0000000000000000     
 -0.33699999999999997          0.0000000000000000     
 -0.33399999999999996          0.0000000000000000     
 -0.33099999999999996          0.0000000000000000     
 -0.32799999999999996          0.0000000000000000     
 -0.32499999999999996          0.0000000000000000     
 -0.32199999999999995          0.0000000000000000     
 -0.31899999999999995          0.0000000000000000     
 -0.31599999999999995          0.0000000000000000     
 -0.31299999999999994          0.0000000000000000     
 -0.30999999999999994          0.0000000000000000     
 -0.30699999999999994          0.0000000000000000     
 -0.30399999999999994          0.0000000000000000     
 -0.30099999999999993          0.0000000000000000     
 -0.29799999999999993          0.0000000000000000     
 -0.29499999999999998          0.0000000000000000     
 -0.29199999999999998          0.0000000000000000     
 -0.28899999999999998          0.0000000000000000     
 -0.28599999999999998          0.0000000000000000     
 -0.28299999999999997         -4.0906385065795765E-042
 -0.27999999999999997         -2.3891206872949771E-042
 -0.27699999999999997         -8.8500943549210929E-041
 -0.27399999999999997         -7.2109172885582734E-041
 -0.27099999999999996          4.2148904582088006E-040
 -0.26799999999999996         -2.3073300919883033E-039
 -0.26499999999999996          2.2638624918959155E-040
 -0.26199999999999996          1.5843097818703912E-038
 -0.25899999999999995          1.7180218325706705E-038
 -0.25599999999999995         -1.2946776066086505E-037
 -0.25300000000000000          2.6406225429311613E-038
 -0.24999999999999997          7.0258216413280604E-037
 -0.24699999999999997         -7.0449981415243902E-037
 -0.24399999999999997         -3.1193725577754657E-036
 -0.24099999999999996          5.5444819706656766E-036
 -0.23799999999999996          1.1754937882671029E-035
 -0.23499999999999996         -3.1852050710446114E-035
 -0.23199999999999996         -3.8063101069672777E-035
 -0.22899999999999995          1.5331494045250878E-034
 -0.22599999999999995          1.0617800398634446E-034
 -0.22299999999999998         -6.5218621837370797E-034
 -0.21999999999999997         -2.5601707302568485E-034
 -0.21699999999999997          2.5200247485039673E-033
 -0.21399999999999997          5.5762875090702551E-034
 -0.21099999999999997         -8.9789055934200298E-033
 -0.20799999999999996         -1.3456891497054707E-033
 -0.20499999999999996          2.9696019001552172E-032
 -0.20199999999999996          4.9283305069486809E-033
 -0.19899999999999995         -9.1062107839244796E-032
 -0.19599999999999995         -2.4052464328308439E-032
 -0.19299999999999995          2.5633463870370956E-031
 -0.18999999999999997          1.1406715965700462E-031
 -0.18699999999999997         -6.4752460436952601E-031
 -0.18399999999999997         -4.6808372976161987E-031
 -0.18099999999999997          1.3997427897671484E-030
 -0.17799999999999996          1.6182152149809257E-030
 -0.17499999999999996         -2.2913788896730123E-030
 -0.17199999999999996         -4.6010887000880040E-030
 -0.16899999999999996          1.4519068717947816E-030
 -0.16599999999999995          1.0047836193305165E-029
 -0.16299999999999995          7.3944378704151483E-030
 -0.15999999999999998         -1.2709055804100891E-029
 -0.15699999999999997         -3.6588598623484135E-029
 -0.15399999999999997         -1.5142010716769207E-029
 -0.15099999999999997          8.9977296754256762E-029
 -0.14799999999999996          1.5067695542126842E-028
 -0.14499999999999996         -9.1180116026487579E-029
 -0.14199999999999996         -5.0324771216086889E-028
 -0.13899999999999996         -2.8737387624110272E-028
 -0.13599999999999995          9.4829505680277854E-028
 -0.13299999999999995          1.7385054731339901E-027
 -0.12999999999999995         -2.6732700458620675E-028
 -0.12699999999999995         -4.4890638189424514E-027
 -0.12399999999999994         -5.0141124325905933E-027
 -0.12099999999999994          4.5529505721548878E-027
 -0.11799999999999994          1.8550575517684319E-026
 -0.11499999999999994          1.3150497720338604E-026
 -0.11199999999999993         -2.9191907335468151E-026
 -0.10899999999999999         -7.1450548026544531E-026
 -0.10599999999999998         -2.2837952859880043E-026
 -0.10299999999999998          1.4379752449983971E-025
  -9.9999999999999978E-002     2.4965141767401842E-025
  -9.6999999999999975E-002    -3.5821005111317783E-027
  -9.3999999999999972E-002    -6.0355517047772582E-025
  -9.0999999999999970E-002    -8.4130930624650199E-025
  -8.7999999999999967E-002     2.4695786022834565E-025
  -8.4999999999999964E-002     2.3642902199272290E-024
  -8.1999999999999962E-002     2.8276424881521844E-024
  -7.8999999999999959E-002    -1.4970211783556887E-024
  -7.5999999999999956E-002    -8.8612879680499447E-024
  -7.2999999999999954E-002    -9.5324354105820035E-024
  -6.9999999999999951E-002     6.5606827383333314E-024
  -6.6999999999999948E-002     3.1967572409838513E-023
  -6.3999999999999946E-002     3.2917351866360999E-023
  -6.0999999999999943E-002    -2.3880898831021487E-023
  -5.7999999999999940E-002    -1.1211356896728733E-022
  -5.4999999999999938E-002    -1.1737085116961679E-022
  -5.1999999999999935E-002     7.4528649643365616E-023
  -4.8999999999999932E-002     3.8215766242444144E-022
  -4.5999999999999985E-002     4.2786220551370500E-022
  -4.2999999999999983E-002    -1.8864812505753346E-022
  -3.9999999999999980E-002    -1.2560621442052572E-021
  -3.6999999999999977E-002    -1.5709183103431427E-021
  -3.3999999999999975E-002     2.8582701114123463E-022
  -3.0999999999999972E-002     3.9314445158119912E-021
  -2.7999999999999969E-002     5.6975148455007556E-021
  -2.4999999999999967E-002     5.9492136626050956E-022
  -2.1999999999999964E-002    -1.1463642265095180E-020
  -1.8999999999999961E-002    -1.9989917406667596E-020
  -1.5999999999999959E-002    -7.9660722475589821E-021
  -1.2999999999999956E-002     2.9905372101475325E-020
  -9.9999999999999534E-003     6.6457980369782191E-020
  -6.9999999999999507E-003     4.6471456319532031E-020
  -3.9999999999999480E-003    -6.3620560967366562E-020
  -9.9999999999994538E-004    -2.0444915983234075E-019
   2.0000000000000573E-003    -2.0928156492911541E-019
   5.0000000000000600E-003     7.5164440525530037E-020
   8.0000000000000626E-003     5.6247257202786606E-019
   1.1000000000000065E-002     7.9804439094053293E-019
   1.4000000000000068E-002     1.9889488363162238E-019
   1.7000000000000015E-002    -1.2963545037721133E-018
   2.0000000000000018E-002    -2.6256595398593454E-018
   2.3000000000000020E-002    -1.8805951555966891E-018
   2.6000000000000023E-002     2.0587172785656873E-018
   2.9000000000000026E-002     7.3344565381867544E-018
   3.2000000000000028E-002     8.6045707153336798E-018
   3.5000000000000031E-002     3.9289547942005681E-019
   3.8000000000000034E-002    -1.6313446997564834E-017
   4.1000000000000036E-002    -2.9298668069453212E-017
   4.4000000000000039E-002    -1.9503352819690775E-017
   4.7000000000000042E-002     2.2624693762794662E-017
   5.0000000000000044E-002     7.7551713518329903E-017
   5.3000000000000047E-002     9.3617502314972353E-017
   5.6000000000000050E-002     1.7842861051169482E-017
   5.9000000000000052E-002    -1.4592824256897150E-016
   6.2000000000000055E-002    -2.9347159949130297E-016
   6.5000000000000058E-002    -2.5030028331373309E-016
   6.8000000000000060E-002     9.8726344615829592E-017
   7.1000000000000063E-002     6.4011337613536929E-016
   7.4000000000000066E-002     9.6883025612823297E-016
   7.7000000000000068E-002     5.7613613898570733E-016
   8.0000000000000016E-002    -7.1697146285800049E-016
   8.3000000000000018E-002    -2.3342734450538864E-015
   8.6000000000000021E-002    -2.9489311803621118E-015
   8.9000000000000024E-002    -1.2125257662573772E-015
   9.2000000000000026E-002     2.9889909175817298E-015
   9.5000000000000029E-002     7.5707285650583790E-015
   9.8000000000000032E-002     8.6470254016986310E-015
  0.10100000000000003          2.7994902505293237E-015
  0.10400000000000004         -9.6273246650956213E-015
  0.10700000000000004         -2.2432781919479191E-014
  0.11000000000000004         -2.5147134489737797E-014
  0.11300000000000004         -9.0705048288669213E-015
  0.11600000000000005          2.4696689980236012E-014
  0.11900000000000005          6.0558981688863354E-014
  0.12200000000000005          7.2423818974356615E-014
  0.12500000000000006          3.7638890753211261E-014
  0.12800000000000006         -4.4758861861003560E-014
  0.13100000000000006         -1.4270310587239146E-013
  0.13400000000000006         -1.9758575968737755E-013
  0.13700000000000007         -1.5137138544495937E-013
  0.14000000000000007          1.5742686538186279E-014
  0.14300000000000007          2.5749552367994970E-013
  0.14600000000000007          4.6402364869156512E-013
  0.14900000000000008          5.0228109944838532E-013
  0.15200000000000008          2.8160303517577492E-013
  0.15500000000000008         -1.8544710350436129E-013
  0.15800000000000008         -7.5970345474672148E-013
  0.16100000000000009         -1.2076606100255620E-012
  0.16400000000000009         -1.2823033538092338E-012
  0.16700000000000009         -8.2285934732615686E-013
  0.17000000000000010          1.6454017072736593E-013
  0.17300000000000010          1.4747785726678134E-012
  0.17600000000000010          2.7314379767147361E-012
  0.17899999999999999          3.4683079032957406E-012
  0.18200000000000000          3.2491790026485074E-012
  0.18500000000000000          1.8061753434792147E-012
  0.18800000000000000         -8.2900135281780063E-013
  0.19100000000000000         -4.2371679192999628E-012
  0.19400000000000001         -7.6118863655164366E-012
  0.19700000000000001         -9.8850281959269337E-012
  0.20000000000000001         -9.9813948264507606E-012
  0.20300000000000001         -7.1526867671979081E-012
  0.20600000000000002         -1.2915358055349155E-012
  0.20900000000000002          6.8899264158562004E-012
  0.21200000000000002          1.5898750188151572E-011
  0.21500000000000002          2.3725513605257398E-011
  0.21800000000000003          2.8263241371007260E-011
  0.22100000000000003          2.7762378976315447E-011
  0.22400000000000003          2.1207417140533765E-011
  0.22700000000000004          8.5469923642323948E-012
  0.23000000000000004         -9.2341680152143513E-012
  0.23300000000000004         -3.0177095718478549E-011
  0.23600000000000004         -5.1516215454391326E-011
  0.23900000000000005         -6.9940811984507989E-011
  0.24200000000000005         -8.1951406973282548E-011
  0.24500000000000005         -8.4304667608211812E-011
  0.24800000000000005         -7.4514416470322773E-011
  0.25100000000000006         -5.1346639636977230E-011
  0.25400000000000006         -1.5230693497428630E-011
  0.25700000000000006          3.1488239646598707E-011
  0.26000000000000006          8.4511037079806358E-011
  0.26300000000000007          1.3778784523705656E-010
  0.26600000000000007          1.8395415713366183E-010
  0.26900000000000007          2.1495313216676917E-010
  0.27200000000000008          2.2275505759688027E-010
  0.27500000000000008          2.0005794718836509E-010
  0.27800000000000008          1.4084799224798295E-010
  0.28100000000000008          4.0740746624626063E-011
  0.28400000000000009         -1.0293929027707459E-010
  0.28700000000000009         -2.9131788481427569E-010
  0.29000000000000009         -5.2432198742947419E-010
  0.29300000000000009         -8.0118315635973418E-010
  0.29600000000000010         -1.1210647468834832E-009
  0.29900000000000010         -1.4837953673653041E-009
  0.30200000000000010         -1.8906764546847941E-009
  0.30499999999999999         -2.3453052016608204E-009
  0.30800000000000000         -2.8543661718501380E-009
  0.31100000000000000         -3.4283037825391853E-009
  0.31400000000000000         -4.0818639624257552E-009
  0.31700000000000000         -4.8344885387480150E-009
  0.32000000000000001         -5.7105981004838104E-009
  0.32300000000000001         -6.7397820162302037E-009
  0.32600000000000001         -7.9568519770298881E-009
  0.32900000000000001         -9.4019485949430931E-009
  0.33200000000000002         -1.1120575876237422E-008
  0.33500000000000002         -1.3163776236086154E-008
  0.33800000000000002         -1.5588432354628729E-008
  0.34100000000000003         -1.8457763753293792E-008
  0.34400000000000003         -2.1842112551098536E-008
  0.34700000000000003         -2.5820032004004619E-008
  0.35000000000000003         -3.0479520988807176E-008
  0.35300000000000004         -3.5919654048039522E-008
  0.35600000000000004         -4.2252311102937522E-008
  0.35900000000000004         -4.9604013295941499E-008
  0.36200000000000004         -5.8118109502282679E-008
  0.36500000000000005         -6.7956529871996917E-008
  0.36800000000000005         -7.9301774389085556E-008
  0.37100000000000005         -9.2359045637470621E-008
  0.37400000000000005         -1.0735788222701074E-007
  0.37700000000000006         -1.2455456896097215E-007
  0.38000000000000006         -1.4423397700360740E-007
  0.38300000000000006         -1.6671148064749502E-007
  0.38600000000000007         -1.9233546696175192E-007
  0.38900000000000007         -2.2148834962597649E-007
  0.39200000000000007         -2.5458910201975660E-007
  0.39500000000000007         -2.9209391562585245E-007
  0.39800000000000008         -3.3449844524131662E-007
  0.40100000000000008         -3.8233895049284175E-007
  0.40400000000000008         -4.3619272909757644E-007
  0.40700000000000008         -4.9667909139437961E-007
  0.41000000000000009         -5.6446140246897474E-007
  0.41300000000000009         -6.4024533856529291E-007
  0.41600000000000009         -7.2477933895695383E-007
  0.41900000000000009         -8.1885354235874698E-007
  0.42200000000000010         -9.2329819360231054E-007
  0.42500000000000010         -1.0389825962275943E-006
  0.42800000000000010         -1.1668076958792815E-006
  0.43100000000000011         -1.3077046054362112E-006
  0.43400000000000000         -1.4626317435309103E-006
  0.43700000000000000         -1.6325583774640141E-006
  0.44000000000000000         -1.8184670609290399E-006
  0.44300000000000000         -2.0213356184948636E-006
  0.44600000000000001         -2.2421311922620569E-006
  0.44900000000000001         -2.4817948199718755E-006
  0.45200000000000001         -2.7412303048378705E-006
  0.45500000000000002         -3.0212848770947062E-006
  0.45800000000000002         -3.3227324005483388E-006
  0.46100000000000002         -3.6462588524869918E-006
  0.46400000000000002         -3.9924375936662943E-006
  0.46700000000000003         -4.3617089076456978E-006
  0.47000000000000003         -4.7543682015370323E-006
  0.47300000000000003         -5.1705222503314473E-006
  0.47600000000000003         -5.6100860380187798E-006
  0.47900000000000004         -6.0727415736143888E-006
  0.48200000000000004         -6.5579148465752144E-006
  0.48500000000000004         -7.0647653387014161E-006
  0.48800000000000004         -7.5921525921348916E-006
  0.49100000000000005         -8.1386106300221636E-006
  0.49400000000000005         -8.7023180420689067E-006
  0.49700000000000005         -9.2811042181473683E-006
  0.50000000000000000         -9.8723950939263368E-006
  0.50300000000000011         -1.0473220151099231E-005
  0.50600000000000001         -1.1080204898240482E-005
  0.50900000000000012         -1.1689537438297776E-005
  0.51200000000000001         -1.2296993450972740E-005
  0.51500000000000012         -1.2897906242506980E-005
  0.51800000000000002         -1.3487197244036550E-005
  0.52100000000000013         -1.4059396124682452E-005
  0.52400000000000002         -1.4608607083064489E-005
  0.52700000000000014         -1.5128615943618068E-005
  0.53000000000000003         -1.5612842529583754E-005
  0.53300000000000014         -1.6054418751283044E-005
  0.53600000000000003         -1.6446246162580579E-005
  0.53900000000000015         -1.6781047045156634E-005
  0.54200000000000004         -1.7051395136762828E-005
  0.54500000000000015         -1.7249802150874861E-005
  0.54800000000000004         -1.7368809866453048E-005
  0.55100000000000016         -1.7401074269324606E-005
  0.55400000000000005         -1.7339406710710525E-005
  0.55700000000000016         -1.7176917917563170E-005
  0.56000000000000005         -1.6907089298997392E-005
  0.56299999999999994         -1.6523897810877141E-005
  0.56600000000000006         -1.6021875918462153E-005
  0.56899999999999995         -1.5396276398692257E-005
  0.57200000000000006         -1.4643077195998607E-005
  0.57499999999999996         -1.3759156044854103E-005
  0.57800000000000007         -1.2742387491820453E-005
  0.58099999999999996         -1.1591677700240313E-005
  0.58400000000000007         -1.0307109371184902E-005
  0.58699999999999997         -8.8899325039973534E-006
  0.59000000000000008         -7.3427416680192937E-006
  0.59299999999999997         -5.6693772223166032E-006
  0.59600000000000009         -3.8750921790760450E-006
  0.59899999999999998         -1.9665164359390967E-006
  0.60200000000000009          4.8312822943611386E-008
  0.60500000000000020          2.1600385835044636E-006
  0.60800000000000010          4.3579120623024333E-006
  0.61100000000000021          6.6299030864358647E-006
  0.61400000000000010          8.9627485138365279E-006
  0.61700000000000021          1.1341990905803068E-005
  0.62000000000000011          1.3752169122677551E-005
  0.62300000000000022          1.6176904551794262E-005
  0.62600000000000011          1.8598992296061922E-005
  0.62900000000000000          2.1000628730164952E-005
  0.63200000000000012          2.3363519898965479E-005
  0.63500000000000001          2.5669053888156660E-005
  0.63800000000000012          2.7898532176698179E-005
  0.64100000000000001          3.0033325936990490E-005
  0.64400000000000013          3.2055106453492069E-005
  0.64700000000000002          3.3946063850849538E-005
  0.65000000000000013          3.5689055685675726E-005
  0.65300000000000002          3.7267834035305494E-005
  0.65600000000000014          3.8667250288249105E-005
  0.65900000000000003          3.9873449389849534E-005
  0.66200000000000014          4.0873980493622599E-005
  0.66500000000000004          4.1658060851591208E-005
  0.66800000000000015          4.2216612301147722E-005
  0.67100000000000004          4.2542481956799658E-005
  0.67400000000000015          4.2630459378819276E-005
  0.67700000000000005          4.2477439254355579E-005
  0.68000000000000016          4.2082426802009555E-005
  0.68300000000000005          4.1446615134755920E-005
  0.68600000000000017          4.0573271164168166E-005
  0.68900000000000006          3.9467875633211610E-005
  0.69200000000000017          3.8137993860411806E-005
  0.69500000000000006          3.6593170780446920E-005
  0.69800000000000018          3.4844938545741728E-005
  0.70100000000000007          3.2906650351338463E-005
  0.70400000000000018          3.0793231076734761E-005
  0.70700000000000007          2.8521193042998209E-005
  0.71000000000000019          2.6108263636409444E-005
  0.71300000000000008          2.3573364479116768E-005
  0.71600000000000019          2.0936365461810250E-005
  0.71900000000000008          1.8217790249145203E-005
  0.72200000000000020          1.5438733280148435E-005
  0.72500000000000009          1.2620393604895672E-005
  0.72800000000000020          9.7840660283947250E-006
  0.73100000000000009          6.9508266328993335E-006
  0.73400000000000021          4.1413545849338854E-006
  0.73700000000000010          1.3757078722226341E-006
  0.74000000000000021         -1.3268512327757599E-006
  0.74300000000000010         -3.9481346015681888E-006
  0.74600000000000022         -6.4710588459928364E-006
  0.74900000000000011         -8.8799616288938788E-006
  0.75200000000000022         -1.1160483990038925E-005
  0.75500000000000012         -1.3299937818170512E-005
  0.75800000000000001         -1.5287220001427511E-005
  0.76100000000000012         -1.7113007893429451E-005
  0.76400000000000001         -1.8769624057170861E-005
  0.76700000000000013         -2.0251267707447186E-005
  0.77000000000000002         -2.1553905839583066E-005
  0.77300000000000013         -2.2675165257176391E-005
  0.77600000000000002         -2.3614376281285069E-005
  0.77900000000000014         -2.4372562098546893E-005
  0.78200000000000003         -2.4952264756603981E-005
  0.78500000000000014         -2.5357554986789193E-005
  0.78800000000000003         -2.5593826347764393E-005
  0.79100000000000015         -2.5667711367372048E-005
  0.79400000000000004         -2.5586941847090108E-005
  0.79700000000000015         -2.5360163486572107E-005
  0.80000000000000004         -2.4996952565760600E-005
  0.80300000000000016         -2.4507558133585621E-005
  0.80600000000000005         -2.3902778341200190E-005
  0.80900000000000016         -2.3193799833199773E-005
  0.81200000000000006         -2.2392063174655447E-005
  0.81500000000000017         -2.1509151655299250E-005
  0.81800000000000006         -2.0556654802685114E-005
  0.82100000000000017         -1.9546067841939080E-005
  0.82400000000000007         -1.8488661294729693E-005
  0.82700000000000018         -1.7395357927063241E-005
  0.83000000000000007         -1.6276649552471033E-005
  0.83300000000000018         -1.5142539056317762E-005
  0.83600000000000008         -1.4002482446838737E-005
  0.83900000000000019         -1.2865293620898184E-005
  0.84200000000000008         -1.1739113629619452E-005
  0.84500000000000020         -1.0631393657957415E-005
  0.84800000000000009         -9.5488542998268986E-006
  0.85100000000000020         -8.4974496619571817E-006
  0.85400000000000009         -7.4824097564271773E-006
  0.85700000000000021         -6.5082123114530636E-006
  0.86000000000000010         -5.5786027612185044E-006
  0.86300000000000021         -4.6966159872417455E-006
  0.86600000000000010         -3.8646325407989775E-006
  0.86900000000000022         -3.0843986929876264E-006
  0.87200000000000011         -2.3570361739475329E-006
  0.87500000000000022         -1.6830917523630777E-006
  0.87800000000000011         -1.0625904363408760E-006
  0.88100000000000001         -4.9506542456086951E-007
  0.88400000000000012          2.0357535967946063E-008
  0.88700000000000001          4.8491092261631380E-007
  0.89000000000000012          9.0013707324294174E-007
  0.89300000000000002          1.2678910800207383E-006
  0.89600000000000013          1.5902731113027408E-006
  0.89900000000000002          1.8695883640187766E-006
  0.90200000000000014          2.1082774674879447E-006
  0.90500000000000003          2.3088709028633076E-006
  0.90800000000000014          2.4739356665353245E-006
  0.91100000000000003          2.6060781477693744E-006
  0.91400000000000015          2.7079520421680179E-006
  0.91700000000000004          2.7822188721315634E-006
  0.92000000000000015          2.8314785187589162E-006
  0.92300000000000004          2.8582549810233509E-006
  0.92600000000000016          2.8649598099477561E-006
  0.92900000000000005          2.8538863986766759E-006
  0.93200000000000016          2.8272241076518148E-006
  0.93500000000000005          2.7870815118136390E-006
  0.93800000000000017          2.7354375436801374E-006
  0.94100000000000006          2.6741207889880376E-006
  0.94400000000000017          2.6048137728224406E-006
  0.94700000000000006          2.5290469261779036E-006
  0.95000000000000018          2.4482103924358062E-006
  0.95300000000000007          2.3635805689747595E-006
  0.95600000000000018          2.2763300545200533E-006
  0.95900000000000007          2.1874987420664507E-006
  0.96200000000000019          2.0979718250818647E-006
  0.96500000000000008          2.0085164732657281E-006
  0.96800000000000019          1.9198036875031081E-006
  0.97100000000000009          1.8323871868070955E-006
  0.97400000000000020          1.7467559497736595E-006
  0.97700000000000009          1.6633264146074058E-006
  0.98000000000000020          1.5824267842693434E-006
  0.98300000000000010          1.5042757477177494E-006
  0.98600000000000021          1.4290458135905679E-006
  0.98900000000000010          1.3568702902517463E-006
  0.99200000000000021          1.2878198351048858E-006
  0.99500000000000011          1.2219238437832299E-006
  0.99800000000000022          1.1591968276353701E-006
   1.0010000000000001          1.0996098166933692E-006
   1.0040000000000002          1.0430741723550367E-006
   1.0070000000000001          9.8949757074157850E-007
   1.0100000000000000          9.3879599464064679E-007
   1.0130000000000001          8.9085031659293005E-007
   1.0160000000000000          8.4552462245118327E-007
   1.0190000000000001          8.0270483352510645E-007
   1.0220000000000000          7.6226954548443132E-007
   1.0250000000000001          7.2406209255970127E-007
   1.0280000000000000          6.8794061499126641E-007
   1.0310000000000001          6.5378356780971955E-007
   1.0340000000000000          6.2145249451170991E-007
   1.0370000000000001          5.9080801870565043E-007
   1.0400000000000000          5.6175189981636153E-007
   1.0430000000000001          5.3419236798434308E-007
   1.0460000000000000          5.0801030457508629E-007
   1.0490000000000002          4.8310426505321949E-007
   1.0520000000000000          4.5939874105751109E-007
   1.0550000000000002          4.3680578132932371E-007
   1.0580000000000001          4.1524232772015702E-007
   1.0610000000000002          3.9466588119150135E-007
   1.0640000000000001          3.7502942328512660E-007
   1.0670000000000002          3.5625230945820267E-007
   1.0700000000000001          3.3827447919591848E-007
   1.0730000000000002          3.2107063425751874E-007
   1.0760000000000001          3.0460267372403632E-007
   1.0790000000000002          2.8883869231906694E-007
   1.0820000000000001          2.7378335820282290E-007
   1.0850000000000002          2.5942325180011142E-007
   1.0880000000000001          2.4570301636099567E-007
   1.0910000000000002          2.3259997584229961E-007
   1.0940000000000001          2.2013084563399177E-007
   1.0970000000000002          2.0828128495809171E-007
