 -0.39999999999999997          0.0000000000000000     
 -0.39699999999999996          0.0000000000000000     
 -0.39399999999999996          0.0000000000000000     
 -0.39099999999999996          0.0000000000000000     
 -0.38799999999999996          0.0000000000000000     
 -0.38499999999999995          0.0000000000000000     
 -0.38199999999999995          0.0000000000000000     
 -0.37899999999999995          0.0000000000000000     
 -0.37599999999999995          0.0000000000000000     
 -0.37299999999999994          0.0000000000000000     
 -0.37000000000000000          0.0000000000000000     
 -0.36699999999999999          0.0000000000000000     
 -0.36399999999999999          0.0000000000000000     
 -0.36099999999999999          0.0000000000000000     
 -0.35799999999999998          0.0000000000000000     
 -0.35499999999999998          0.0000000000000000     
 -0.35199999999999998          0.0000000000000000     
 -0.34899999999999998          0.0000000000000000     
 -0.34599999999999997          0.0000000000000000     
 -0.34299999999999997          0.0000000000000000     
 -0.33999999999999997          0.0000000000000000     
 -0.33699999999999997          0.0000000000000000     
 -0.33399999999999996          0.0000000000000000     
 -0.33099999999999996          0.0000000000000000     
 -0.32799999999999996          0.0000000000000000     
 -0.32499999999999996          0.0000000000000000     
 -0.32199999999999995          0.0000000000000000     
 -0.31899999999999995          0.0000000000000000     
 -0.31599999999999995          0.0000000000000000     
 -0.31299999999999994          0.0000000000000000     
 -0.30999999999999994          0.0000000000000000     
 -0.30699999999999994          0.0000000000000000     
 -0.30399999999999994          0.0000000000000000     
 -0.30099999999999993          0.0000000000000000     
 -0.29799999999999993          0.0000000000000000     
 -0.29499999999999998          0.0000000000000000     
 -0.29199999999999998          0.0000000000000000     
 -0.28899999999999998          0.0000000000000000     
 -0.28599999999999998          0.0000000000000000     
 -0.28299999999999997          0.0000000000000000     
 -0.27999999999999997          0.0000000000000000     
 -0.27699999999999997          0.0000000000000000     
 -0.27399999999999997          0.0000000000000000     
 -0.27099999999999996          0.0000000000000000     
 -0.26799999999999996          0.0000000000000000     
 -0.26499999999999996          0.0000000000000000     
 -0.26199999999999996          0.0000000000000000     
 -0.25899999999999995          0.0000000000000000     
 -0.25599999999999995          0.0000000000000000     
 -0.25300000000000000          0.0000000000000000     
 -0.24999999999999997          0.0000000000000000     
 -0.24699999999999997          0.0000000000000000     
 -0.24399999999999997          0.0000000000000000     
 -0.24099999999999996          0.0000000000000000     
 -0.23799999999999996          0.0000000000000000     
 -0.23499999999999996          0.0000000000000000     
 -0.23199999999999996          0.0000000000000000     
 -0.22899999999999995          0.0000000000000000     
 -0.22599999999999995          0.0000000000000000     
 -0.22299999999999998          0.0000000000000000     
 -0.21999999999999997          0.0000000000000000     
 -0.21699999999999997          0.0000000000000000     
 -0.21399999999999997          0.0000000000000000     
 -0.21099999999999997          0.0000000000000000     
 -0.20799999999999996          0.0000000000000000     
 -0.20499999999999996          0.0000000000000000     
 -0.20199999999999996          0.0000000000000000     
 -0.19899999999999995          0.0000000000000000     
 -0.19599999999999995          0.0000000000000000     
 -0.19299999999999995          0.0000000000000000     
 -0.18999999999999997          0.0000000000000000     
 -0.18699999999999997          0.0000000000000000     
 -0.18399999999999997          0.0000000000000000     
 -0.18099999999999997          0.0000000000000000     
 -0.17799999999999996          0.0000000000000000     
 -0.17499999999999996          0.0000000000000000     
 -0.17199999999999996          0.0000000000000000     
 -0.16899999999999996          0.0000000000000000     
 -0.16599999999999995          0.0000000000000000     
 -0.16299999999999995          0.0000000000000000     
 -0.15999999999999998          0.0000000000000000     
 -0.15699999999999997          0.0000000000000000     
 -0.15399999999999997          0.0000000000000000     
 -0.15099999999999997          0.0000000000000000     
 -0.14799999999999996          0.0000000000000000     
 -0.14499999999999996          0.0000000000000000     
 -0.14199999999999996          0.0000000000000000     
 -0.13899999999999996          0.0000000000000000     
 -0.13599999999999995          0.0000000000000000     
 -0.13299999999999995          0.0000000000000000     
 -0.12999999999999995          0.0000000000000000     
 -0.12699999999999995          0.0000000000000000     
 -0.12399999999999994          0.0000000000000000     
 -0.12099999999999994          0.0000000000000000     
 -0.11799999999999994          0.0000000000000000     
 -0.11499999999999994          0.0000000000000000     
 -0.11199999999999993          0.0000000000000000     
 -0.10899999999999999          0.0000000000000000     
 -0.10599999999999998          0.0000000000000000     
 -0.10299999999999998          0.0000000000000000     
  -9.9999999999999978E-002     0.0000000000000000     
  -9.6999999999999975E-002     0.0000000000000000     
  -9.3999999999999972E-002     0.0000000000000000     
  -9.0999999999999970E-002     0.0000000000000000     
  -8.7999999999999967E-002     0.0000000000000000     
  -8.4999999999999964E-002     0.0000000000000000     
  -8.1999999999999962E-002     0.0000000000000000     
  -7.8999999999999959E-002     0.0000000000000000     
  -7.5999999999999956E-002     0.0000000000000000     
  -7.2999999999999954E-002     0.0000000000000000     
  -6.9999999999999951E-002     0.0000000000000000     
  -6.6999999999999948E-002     0.0000000000000000     
  -6.3999999999999946E-002     0.0000000000000000     
  -6.0999999999999943E-002     0.0000000000000000     
  -5.7999999999999940E-002     0.0000000000000000     
  -5.4999999999999938E-002     0.0000000000000000     
  -5.1999999999999935E-002     0.0000000000000000     
  -4.8999999999999932E-002     0.0000000000000000     
  -4.5999999999999985E-002     0.0000000000000000     
  -4.2999999999999983E-002     0.0000000000000000     
  -3.9999999999999980E-002     0.0000000000000000     
  -3.6999999999999977E-002     0.0000000000000000     
  -3.3999999999999975E-002     0.0000000000000000     
  -3.0999999999999972E-002     0.0000000000000000     
  -2.7999999999999969E-002     0.0000000000000000     
  -2.4999999999999967E-002     0.0000000000000000     
  -2.1999999999999964E-002     0.0000000000000000     
  -1.8999999999999961E-002     0.0000000000000000     
  -1.5999999999999959E-002     0.0000000000000000     
  -1.2999999999999956E-002     0.0000000000000000     
  -9.9999999999999534E-003     0.0000000000000000     
  -6.9999999999999507E-003     0.0000000000000000     
  -3.9999999999999480E-003     0.0000000000000000     
  -9.9999999999994538E-004     0.0000000000000000     
   2.0000000000000573E-003     0.0000000000000000     
   5.0000000000000600E-003     0.0000000000000000     
   8.0000000000000626E-003     0.0000000000000000     
   1.1000000000000065E-002     0.0000000000000000     
   1.4000000000000068E-002     0.0000000000000000     
   1.7000000000000015E-002     0.0000000000000000     
   2.0000000000000018E-002     0.0000000000000000     
   2.3000000000000020E-002     0.0000000000000000     
   2.6000000000000023E-002     0.0000000000000000     
   2.9000000000000026E-002     0.0000000000000000     
   3.2000000000000028E-002     0.0000000000000000     
   3.5000000000000031E-002     0.0000000000000000     
   3.8000000000000034E-002     0.0000000000000000     
   4.1000000000000036E-002     0.0000000000000000     
   4.4000000000000039E-002     0.0000000000000000     
   4.7000000000000042E-002     0.0000000000000000     
   5.0000000000000044E-002     0.0000000000000000     
   5.3000000000000047E-002     0.0000000000000000     
   5.6000000000000050E-002     0.0000000000000000     
   5.9000000000000052E-002     0.0000000000000000     
   6.2000000000000055E-002     0.0000000000000000     
   6.5000000000000058E-002     0.0000000000000000     
   6.8000000000000060E-002     0.0000000000000000     
   7.1000000000000063E-002     0.0000000000000000     
   7.4000000000000066E-002     0.0000000000000000     
   7.7000000000000068E-002     0.0000000000000000     
   8.0000000000000016E-002     0.0000000000000000     
   8.3000000000000018E-002     0.0000000000000000     
   8.6000000000000021E-002     0.0000000000000000     
   8.9000000000000024E-002     0.0000000000000000     
   9.2000000000000026E-002     0.0000000000000000     
   9.5000000000000029E-002     0.0000000000000000     
   9.8000000000000032E-002     0.0000000000000000     
  0.10100000000000003          0.0000000000000000     
  0.10400000000000004          0.0000000000000000     
  0.10700000000000004          0.0000000000000000     
  0.11000000000000004          0.0000000000000000     
  0.11300000000000004          0.0000000000000000     
  0.11600000000000005          0.0000000000000000     
  0.11900000000000005          0.0000000000000000     
  0.12200000000000005          0.0000000000000000     
  0.12500000000000006          0.0000000000000000     
  0.12800000000000006          0.0000000000000000     
  0.13100000000000006          0.0000000000000000     
  0.13400000000000006          0.0000000000000000     
  0.13700000000000007          0.0000000000000000     
  0.14000000000000007          0.0000000000000000     
  0.14300000000000007          0.0000000000000000     
  0.14600000000000007          0.0000000000000000     
  0.14900000000000008          0.0000000000000000     
  0.15200000000000008          0.0000000000000000     
  0.15500000000000008          0.0000000000000000     
  0.15800000000000008          0.0000000000000000     
  0.16100000000000009          0.0000000000000000     
  0.16400000000000009          0.0000000000000000     
  0.16700000000000009          0.0000000000000000     
  0.17000000000000010          0.0000000000000000     
  0.17300000000000010          0.0000000000000000     
  0.17600000000000010          0.0000000000000000     
  0.17899999999999999          0.0000000000000000     
  0.18200000000000000          0.0000000000000000     
  0.18500000000000000          0.0000000000000000     
  0.18800000000000000          0.0000000000000000     
  0.19100000000000000          0.0000000000000000     
  0.19400000000000001          0.0000000000000000     
  0.19700000000000001          0.0000000000000000     
  0.20000000000000001          0.0000000000000000     
  0.20300000000000001          0.0000000000000000     
  0.20600000000000002          0.0000000000000000     
  0.20900000000000002          0.0000000000000000     
  0.21200000000000002          0.0000000000000000     
  0.21500000000000002          0.0000000000000000     
  0.21800000000000003          0.0000000000000000     
  0.22100000000000003          0.0000000000000000     
  0.22400000000000003          0.0000000000000000     
  0.22700000000000004          0.0000000000000000     
  0.23000000000000004          0.0000000000000000     
  0.23300000000000004          0.0000000000000000     
  0.23600000000000004          0.0000000000000000     
  0.23900000000000005          0.0000000000000000     
  0.24200000000000005          0.0000000000000000     
  0.24500000000000005          0.0000000000000000     
  0.24800000000000005          0.0000000000000000     
  0.25100000000000006          0.0000000000000000     
  0.25400000000000006          0.0000000000000000     
  0.25700000000000006          0.0000000000000000     
  0.26000000000000006          0.0000000000000000     
  0.26300000000000007          0.0000000000000000     
  0.26600000000000007          0.0000000000000000     
  0.26900000000000007          0.0000000000000000     
  0.27200000000000008          0.0000000000000000     
  0.27500000000000008          0.0000000000000000     
  0.27800000000000008          0.0000000000000000     
  0.28100000000000008          0.0000000000000000     
  0.28400000000000009          0.0000000000000000     
  0.28700000000000009          0.0000000000000000     
  0.29000000000000009          0.0000000000000000     
  0.29300000000000009          0.0000000000000000     
  0.29600000000000010          0.0000000000000000     
  0.29900000000000010          0.0000000000000000     
  0.30200000000000010          0.0000000000000000     
  0.30499999999999999          0.0000000000000000     
  0.30800000000000000          0.0000000000000000     
  0.31100000000000000          0.0000000000000000     
  0.31400000000000000          0.0000000000000000     
  0.31700000000000000          0.0000000000000000     
  0.32000000000000001          0.0000000000000000     
  0.32300000000000001          0.0000000000000000     
  0.32600000000000001          0.0000000000000000     
  0.32900000000000001          0.0000000000000000     
  0.33200000000000002          0.0000000000000000     
  0.33500000000000002          0.0000000000000000     
  0.33800000000000002          0.0000000000000000     
  0.34100000000000003          0.0000000000000000     
  0.34400000000000003          0.0000000000000000     
  0.34700000000000003          0.0000000000000000     
  0.35000000000000003          0.0000000000000000     
  0.35300000000000004         -1.4442501601151086E-041
  0.35600000000000004         -2.3758202323262087E-041
  0.35900000000000004          4.1419345780376594E-041
  0.36200000000000004         -2.4595404163447264E-041
  0.36500000000000005         -8.1988988824271977E-041
  0.36800000000000005          1.1678158515489880E-040
  0.37100000000000005          1.5516478151046426E-039
  0.37400000000000005          2.8388752029689572E-039
  0.37700000000000006          3.4406769918068082E-039
  0.38000000000000006          2.1496884794483230E-039
  0.38300000000000006         -9.2554511098634962E-040
  0.38600000000000007         -4.6428989250469352E-039
  0.38900000000000007          2.0709546480746426E-039
  0.39200000000000007          5.8488907696497744E-039
  0.39500000000000007          8.0735868718806915E-039
  0.39800000000000008          1.0703510392263965E-038
  0.40100000000000008          8.3548375497015849E-039
  0.40400000000000008          2.0833977274123222E-038
  0.40700000000000008          1.9842856024954323E-038
  0.41000000000000009          9.1792229923904047E-039
  0.41300000000000009         -1.3549983055899293E-038
  0.41600000000000009         -4.6382176930466936E-038
  0.41900000000000009         -8.1549804635573429E-038
  0.42200000000000010         -1.0690170409857818E-037
  0.42500000000000010         -1.0401955518453685E-037
  0.42800000000000010         -5.4841569094682333E-038
  0.43100000000000011          5.1480161388789820E-038
  0.43400000000000000          2.0926425301913958E-037
  0.43700000000000000          3.8846739815349689E-037
  0.44000000000000000          5.3023905818236561E-037
  0.44300000000000000          5.5315333866841959E-037
  0.44600000000000001          3.7042185793185690E-037
  0.44900000000000001         -7.9374055748128641E-038
  0.45200000000000001         -7.9283710544354956E-037
  0.45500000000000002         -1.6631872808408459E-036
  0.45800000000000002         -2.4575374869388446E-036
  0.46100000000000002         -2.8277497050654004E-036
  0.46400000000000002         -2.3704453218075900E-036
  0.46700000000000003         -7.4250336640877823E-037
  0.47000000000000003          2.1781139974423573E-036
  0.47300000000000003          6.1180636229777123E-036
  0.47600000000000003          1.0275187477925993E-035
  0.47900000000000004          1.3295927671869444E-035
  0.48200000000000004          1.3433135345038580E-035
  0.48500000000000004          8.9291643302679611E-036
  0.48800000000000004         -1.3835669770995398E-036
  0.49100000000000005         -1.7350273758951825E-035
  0.49400000000000005         -3.6805336839675637E-035
  0.49700000000000005         -5.5181303671130903E-035
  0.50000000000000000         -6.5703412876012968E-035
  0.50300000000000011         -6.0415846071499560E-035
  0.50600000000000001         -3.2142832533830729E-035
  0.50900000000000012          2.2759780838744155E-035
  0.51200000000000001          1.0133435724281497E-034
  0.51500000000000012          1.9144202191191272E-034
  0.51800000000000002          2.7073900160294376E-034
  0.52100000000000013          3.0831797902639276E-034
  0.52400000000000002          2.6985193933813565E-034
  0.52700000000000014          1.2641705236495621E-034
  0.53000000000000003         -1.3386378670465250E-034
  0.53300000000000014         -4.9347982982476679E-034
  0.53600000000000003         -8.9585514437736560E-034
  0.53900000000000015         -1.2425152187017804E-033
  0.54200000000000004         -1.4012523932963652E-033
  0.54500000000000015         -1.2281988239996668E-033
  0.54800000000000004         -6.0404495516517698E-034
  0.55100000000000016          5.1931837826353323E-034
  0.55400000000000005          2.0701655837065191E-033
  0.55700000000000016          3.8191863242529766E-033
  0.56000000000000005          5.3683391627930177E-033
  0.56299999999999994          6.1817550281583935E-033
  0.56600000000000006          5.6694324963709912E-033
  0.56899999999999995          3.3248218165500794E-033
  0.57200000000000006         -1.0969018325965351E-033
  0.57499999999999996         -7.3899032949807989E-033
  0.57800000000000007         -1.4744264634175377E-032
  0.58099999999999996         -2.1684915852230541E-032
  0.58400000000000007         -2.6160012046269761E-032
  0.58699999999999997         -2.5821163629607855E-032
  0.59000000000000008         -1.8505945632070460E-032
  0.59299999999999997         -2.8850731770472214E-033
  0.59600000000000009          2.0821777504567033E-032
  0.59899999999999998          5.0215272914545868E-032
  0.60200000000000009          8.0367875658665173E-032
  0.60500000000000020          1.0396439587772451E-031
  0.60800000000000010          1.1210209727812187E-031
  0.61100000000000021          9.5826665228950345E-032
  0.61400000000000010          4.8329431328762081E-032
  0.61700000000000021         -3.2461164512297803E-032
  0.62000000000000011         -1.4136341843908511E-031
  0.62300000000000022         -2.6414202412046646E-031
  0.62600000000000011         -3.7714537801242937E-031
  0.62900000000000000         -4.4904486999242707E-031
  0.63200000000000012         -4.4510293432674802E-031
  0.63500000000000001         -3.3396820360129988E-031
  0.63800000000000012         -9.6405639351235319E-032
  0.64100000000000001          2.6530794585811195E-031
  0.64400000000000013          7.1923168607893257E-031
  0.64700000000000002          1.1991967529962958E-030
  0.65000000000000013          1.6062512734474431E-030
  0.65300000000000002          1.8180798503135905E-030
  0.65600000000000014          1.7073092766178242E-030
  0.65900000000000003          1.1679763043975086E-030
  0.66200000000000014          1.4734892118677854E-031
  0.66500000000000004         -1.3218933102944661E-030
  0.66800000000000015         -3.0960160651087088E-030
  0.67100000000000004         -4.9090890570551815E-030
  0.67400000000000015         -6.3840438257773866E-030
  0.67700000000000005         -7.0716147253085722E-030
  0.68000000000000016         -6.5189589060726416E-030
  0.68300000000000005         -4.3640988882726778E-030
  0.68600000000000017         -4.4559043339732164E-031
  0.68900000000000006          5.0900281772858038E-030
  0.69200000000000017          1.1706013934311204E-029
  0.69500000000000006          1.8444104261197535E-029
  0.69800000000000018          2.3968217363783556E-029
  0.70100000000000007          2.6700165132588102E-029
  0.70400000000000018          2.5051658333533808E-029
  0.70700000000000007          1.7738975492378529E-029
  0.71000000000000019          4.1459212665260698E-030
  0.71300000000000008         -1.5320337567691075E-029
  0.71600000000000019         -3.8952650178869224E-029
  0.71900000000000008         -6.3626491685139990E-029
  0.72200000000000020         -8.4917316490638507E-029
  0.72500000000000009         -9.7507031336704393E-029
  0.72800000000000020         -9.5896546630172684E-029
  0.73100000000000009         -7.5388839940179919E-029
  0.73400000000000021         -3.3244878409740552E-029
  0.73700000000000010          3.0148154997243971E-029
  0.74000000000000021          1.1030898516809530E-028
  0.74300000000000010          1.9813638619135727E-028
  0.74600000000000022          2.8006071026897701E-028
  0.74900000000000011          3.3905773159105381E-028
  0.75200000000000022          3.5660913326437994E-028
  0.75500000000000012          3.1555204594135271E-028
  0.75800000000000001          2.0358313798620686E-028
  0.76100000000000012          1.6998570143062991E-029
  0.76400000000000001         -2.3591556567089255E-028
  0.76700000000000013         -5.3253842844015175E-028
  0.77000000000000002         -8.3533652749421684E-028
  0.77300000000000013         -1.0936787425079159E-027
  0.77600000000000002         -1.2484481318074214E-027
  0.77900000000000014         -1.2394933376762249E-027
  0.78200000000000003         -1.0155031432344188E-027
  0.78500000000000014         -5.4535642738704131E-028
  0.78800000000000003          1.7050070886949113E-028
  0.79100000000000015          1.0905251580482102E-027
  0.79400000000000004          2.1264882521556141E-027
  0.79700000000000015          3.1438647446200513E-027
  0.80000000000000004          3.9698456861552763E-027
  0.80300000000000016          4.4098613106417630E-027
  0.80600000000000005          4.2723779710922093E-027
  0.80900000000000016          3.4003860839739558E-027
  0.81200000000000006          1.7064971294377115E-027
  0.81500000000000017         -7.9282200435771529E-028
  0.81800000000000006         -3.9494215800607835E-027
  0.82100000000000017         -7.4681347292591862E-027
  0.82400000000000007         -1.0909704345844551E-026
  0.82700000000000018         -1.3716582043940658E-026
  0.83000000000000007         -1.5263946334355569E-026
  0.83300000000000018         -1.4935216484483724E-026
  0.83600000000000008         -1.2217411477017586E-026
  0.83900000000000019         -6.8076736631954530E-027
  0.84200000000000008          1.2817428123754130E-027
  0.84500000000000020          1.1635784278717549E-026
  0.84800000000000009          2.3383652435962212E-026
  0.85100000000000020          3.5197578432245586E-026
  0.85400000000000009          4.5357356262413706E-026
  0.85700000000000021          5.1889025303460000E-026
  0.86000000000000010          5.2777817489978638E-026
  0.86300000000000021          4.6245070151116344E-026
  0.86600000000000010          3.1067257306614132E-026
  0.86900000000000022          6.9037197047411904E-027
  0.87200000000000011         -2.5409989257067601E-026
  0.87500000000000022         -6.3652955052343087E-026
  0.87800000000000011         -1.0414477893550290E-025
  0.88100000000000001         -1.4185240934377800E-025
  0.88400000000000012         -1.7071085479625318E-025
  0.88700000000000001         -1.8417127048341007E-025
  0.89000000000000012         -1.7596165617866885E-025
  0.89300000000000002         -1.4101493990278814E-025
  0.89600000000000013         -7.6483942743807933E-026
  0.89900000000000002          1.7268125024074889E-026
  0.90200000000000014          1.3583959571791112E-025
  0.90500000000000003          2.7027522515170775E-025
  0.90800000000000014          4.0701432635023980E-025
  0.91100000000000003          5.2842889602472654E-025
  0.91400000000000015          6.1403711609586264E-025
  0.91700000000000004          6.4240990437991947E-025
  0.92000000000000015          5.9370711036585534E-025
  0.92300000000000004          4.5268175321146194E-025
  0.92600000000000016          2.1189016444587819E-025
  0.92900000000000005         -1.2524604808050804E-025
  0.93200000000000016         -5.4195294654680126E-025
  0.93500000000000005         -1.0066532422550635E-024
  0.93800000000000017         -1.4730035648432941E-024
  0.94100000000000006         -1.8817981865175598E-024
  0.94400000000000017         -2.1649850430021692E-024
  0.94700000000000006         -2.2518414942326726E-024
  0.95000000000000018         -2.0770981668082285E-024
  0.95300000000000007         -1.5905194260131801E-024
  0.95600000000000018         -7.6713004094289392E-025
  0.95900000000000007          3.8298839518297873E-025
  0.96200000000000019          1.8066348581088910E-024
  0.96500000000000008          3.4025835713487491E-024
  0.96800000000000019          5.0212321480899959E-024
  0.97100000000000009          6.4700120657768511E-024
  0.97400000000000020          7.5253682339850221E-024
  0.97700000000000009          7.9515637561083479E-024
  0.98000000000000020          7.5257936476272816E-024
  0.98300000000000010          6.0682380776531369E-024
  0.98600000000000021          3.4747587288164751E-024
  0.98900000000000010         -2.5094693513620043E-025
  0.99200000000000021         -4.9696126915427474E-024
  0.99500000000000011         -1.0387474292504989E-023
  0.99800000000000022         -1.6050522884437009E-023
   1.0010000000000001         -2.1355940958482211E-023
   1.0040000000000002         -2.5583716274453974E-023
   1.0070000000000001         -2.7949803822154336E-023
   1.0100000000000000         -2.7680213513399412E-023
   1.0130000000000001         -2.4102719708690759E-023
   1.0160000000000000         -1.6750240114053878E-023
   1.0190000000000001         -5.4670020899754338E-024
   1.0220000000000000          9.4936938065064183E-024
   1.0250000000000001          2.7393257540351508E-023
   1.0280000000000000          4.6966966753879470E-023
   1.0310000000000001          6.6431788272128574E-023
   1.0340000000000000          8.3554025791455875E-023
   1.0370000000000001          9.5784175077827691E-023
   1.0400000000000000          1.0046031909842418E-022
   1.0430000000000001          9.5075012292293090E-023
   1.0460000000000000          7.7591765226384229E-023
   1.0490000000000002          4.6788573948418716E-023
   1.0520000000000000          2.5982551735963035E-024
   1.0550000000000002         -5.3592529184586305E-023
   1.0580000000000001         -1.1872766027817675E-022
   1.0610000000000002         -1.8799294127296095E-022
   1.0640000000000001         -2.5489496875784510E-022
   1.0670000000000002         -3.1153955421306629E-022
   1.0700000000000001         -3.4912885423310297E-022
   1.0730000000000002         -3.5867683421266759E-022
   1.0760000000000001         -3.3192104659814796E-022
   1.0790000000000002         -2.6238162412498091E-022
   1.0820000000000001         -1.4649167015199492E-022
   1.0850000000000002          1.5300995015688768E-023
   1.0880000000000001          2.1758421008109688E-022
   1.0910000000000002          4.4931724818382710E-022
   1.0940000000000001          6.9359077258747941E-022
   1.0970000000000002          9.2793634383817788E-022
