 -0.39999999999999997          0.0000000000000000     
 -0.39699999999999996          0.0000000000000000     
 -0.39399999999999996          0.0000000000000000     
 -0.39099999999999996          0.0000000000000000     
 -0.38799999999999996          0.0000000000000000     
 -0.38499999999999995          0.0000000000000000     
 -0.38199999999999995          0.0000000000000000     
 -0.37899999999999995          0.0000000000000000     
 -0.37599999999999995          0.0000000000000000     
 -0.37299999999999994          0.0000000000000000     
 -0.37000000000000000          0.0000000000000000     
 -0.36699999999999999          0.0000000000000000     
 -0.36399999999999999          0.0000000000000000     
 -0.36099999999999999          0.0000000000000000     
 -0.35799999999999998          0.0000000000000000     
 -0.35499999999999998          0.0000000000000000     
 -0.35199999999999998          0.0000000000000000     
 -0.34899999999999998          0.0000000000000000     
 -0.34599999999999997          0.0000000000000000     
 -0.34299999999999997          0.0000000000000000     
 -0.33999999999999997          0.0000000000000000     
 -0.33699999999999997          0.0000000000000000     
 -0.33399999999999996          0.0000000000000000     
 -0.33099999999999996          0.0000000000000000     
 -0.32799999999999996          0.0000000000000000     
 -0.32499999999999996          0.0000000000000000     
 -0.32199999999999995          0.0000000000000000     
 -0.31899999999999995          0.0000000000000000     
 -0.31599999999999995          0.0000000000000000     
 -0.31299999999999994          0.0000000000000000     
 -0.30999999999999994          0.0000000000000000     
 -0.30699999999999994          0.0000000000000000     
 -0.30399999999999994          0.0000000000000000     
 -0.30099999999999993          0.0000000000000000     
 -0.29799999999999993          0.0000000000000000     
 -0.29499999999999998          0.0000000000000000     
 -0.29199999999999998          0.0000000000000000     
 -0.28899999999999998          0.0000000000000000     
 -0.28599999999999998          0.0000000000000000     
 -0.28299999999999997         -1.9146836474940715E-041
 -0.27999999999999997          7.1398155874389776E-041
 -0.27699999999999997         -1.4811572347150240E-040
 -0.27399999999999997          5.9906935885112675E-041
 -0.27099999999999996          1.0195244451815906E-039
 -0.26799999999999996         -5.5760280944944919E-039
 -0.26499999999999996         -2.0040945695751070E-038
 -0.26199999999999996          3.6208362141064271E-038
 -0.25899999999999995          7.5115128410737821E-038
 -0.25599999999999995         -2.6537926963000520E-037
 -0.25300000000000000         -1.8587851479823298E-037
 -0.24999999999999997          1.6167646258105492E-036
 -0.24699999999999997         -2.3616868166522029E-037
 -0.24399999999999997         -8.1055825996847673E-036
 -0.24099999999999996          6.1123043619067368E-036
 -0.23799999999999996          3.5235817763606445E-035
 -0.23499999999999996         -4.5021821436922165E-035
 -0.23199999999999996         -1.3734120906572667E-034
 -0.22899999999999995          2.4312268122111338E-034
 -0.22599999999999995          4.9341237853195492E-034
 -0.22299999999999998         -1.1021039461354860E-033
 -0.21999999999999997         -1.6788486949477670E-033
 -0.21699999999999997          4.4017163275741697E-033
 -0.21399999999999997          5.5590620227668614E-033
 -0.21099999999999997         -1.5815687279008974E-032
 -0.20799999999999996         -1.8305660232300885E-032
 -0.20499999999999996          5.1460312469444494E-032
 -0.20199999999999996          6.0370674155379174E-032
 -0.19899999999999995         -1.5086412061039307E-031
 -0.19599999999999995         -1.9694179120933744E-031
 -0.19299999999999995          3.9076041829143255E-031
 -0.18999999999999997          6.1809418614834003E-031
 -0.18699999999999997         -8.5257341695128442E-031
 -0.18399999999999997         -1.7995056579981250E-030
 -0.18099999999999997          1.3680770092988092E-030
 -0.17799999999999996          4.6430737808637460E-030
 -0.17499999999999996         -6.2729567351616913E-031
 -0.17199999999999996         -9.8586914745337345E-030
 -0.16899999999999996         -5.7569059766470320E-030
 -0.16599999999999995          1.4062624938001553E-029
 -0.16299999999999995          2.6539982006639440E-029
 -0.15999999999999998          2.4290950722847358E-030
 -0.15699999999999997         -6.4908430257872681E-029
 -0.15399999999999997         -9.7035366738774755E-029
 -0.15099999999999997          6.7032096971117602E-029
 -0.14799999999999996          3.5979514123704075E-028
 -0.14499999999999996          2.0838058226361851E-028
 -0.14199999999999996         -7.3487236017853827E-028
 -0.13899999999999996         -1.3095825008373703E-027
 -0.13599999999999995          3.8868998774420050E-028
 -0.13299999999999995          3.5822836158193543E-027
 -0.12999999999999995          3.2906753732142861E-027
 -0.12699999999999995         -4.4929973539828157E-027
 -0.12399999999999994         -1.3703468785219829E-026
 -0.12099999999999994         -6.9896985169537645E-027
 -0.11799999999999994          2.4718279968033876E-026
 -0.11499999999999994          5.0497375152908907E-026
 -0.11199999999999993          6.0253051384788173E-027
 -0.10899999999999999         -1.1648434212319512E-025
 -0.10599999999999998         -1.7100025344068341E-025
 -0.10299999999999998          4.9979418167740509E-026
  -9.9999999999999978E-002     4.7802423671866216E-025
  -9.6999999999999975E-002     5.4402728556554624E-025
  -9.3999999999999972E-002    -3.7136262574858419E-025
  -9.0999999999999970E-002    -1.8204095136492850E-024
  -8.7999999999999967E-002    -1.7362694776677038E-024
  -8.4999999999999964E-002     1.7929055334529889E-024
  -8.1999999999999962E-002     6.7109613893127936E-024
  -7.8999999999999959E-002     5.6386409362442974E-024
  -7.5999999999999956E-002    -7.3502999824780930E-024
  -7.2999999999999954E-002    -2.4033524471641416E-023
  -6.9999999999999951E-002    -1.8995694901091451E-023
  -6.6999999999999948E-002     2.6684804609979152E-023
  -6.3999999999999946E-002     8.4133849021807725E-023
  -6.0999999999999943E-002     6.7767561194202330E-023
  -5.7999999999999940E-002    -8.7182990537270658E-023
  -5.4999999999999938E-002    -2.8874039676781071E-022
  -5.1999999999999935E-002    -2.5302920888321517E-022
  -4.8999999999999932E-002     2.5260689187454507E-022
  -4.5999999999999985E-002     9.6409872650063664E-022
  -4.2999999999999983E-002     9.6431898821487221E-022
  -3.9999999999999980E-002    -6.0246636309634250E-022
  -3.6999999999999977E-002    -3.0937065310959119E-021
  -3.3999999999999975E-002    -3.6534365971500560E-021
  -3.0999999999999972E-002     8.6391982307938347E-022
  -2.7999999999999969E-002     9.3646959224804316E-021
  -2.4999999999999967E-002     1.3411706076481304E-020
  -2.1999999999999964E-002     1.7701237502769235E-021
  -1.8999999999999961E-002    -2.5910608571190967E-020
  -1.5999999999999959E-002    -4.6648793541919055E-020
  -1.2999999999999956E-002    -2.2322949680614967E-020
  -9.9999999999999534E-003     6.1634224374749663E-020
  -6.9999999999999507E-003     1.5034121141873103E-019
  -3.9999999999999480E-003     1.2344098813589851E-019
  -9.9999999999994538E-004    -1.0574374830247260E-019
   2.0000000000000573E-003    -4.3594826928682326E-019
   5.0000000000000600E-003    -5.2285116102234177E-019
   8.0000000000000626E-003     4.9977618852254111E-021
   1.1000000000000065E-002     1.0801008999869936E-018
   1.4000000000000068E-002     1.8475595870230034E-018
   1.7000000000000015E-002     9.9725696341822901E-019
   2.0000000000000018E-002    -2.0028613599911048E-018
   2.3000000000000020E-002    -5.4837610796857349E-018
   2.6000000000000023E-002    -5.5589649667744525E-018
   2.9000000000000026E-002     1.1777431909764583E-018
   3.2000000000000028E-002     1.3060934022266654E-017
   3.5000000000000031E-002     2.0677381966405468E-017
   3.8000000000000034E-002     1.0959075547786674E-017
   4.1000000000000036E-002    -2.0831929210383910E-017
   4.4000000000000039E-002    -5.8232666466948606E-017
   4.7000000000000042E-002    -6.3681747319617623E-017
   5.0000000000000044E-002    -2.3444837699535448E-018
   5.3000000000000047E-002     1.1704542255351301E-016
   5.6000000000000050E-002     2.1490691951294307E-016
   5.9000000000000052E-002     1.6722696315884634E-016
   6.2000000000000055E-002    -9.9784092878516041E-017
   6.5000000000000058E-002    -4.9215405580475111E-016
   6.8000000000000060E-002    -7.1060798614097212E-016
   7.1000000000000063E-002    -3.9121624844797825E-016
   7.4000000000000066E-002     5.8321383438353968E-016
   7.7000000000000068E-002     1.7805498291697189E-015
   8.0000000000000016E-002     2.2223855153676753E-015
   8.3000000000000018E-002     9.0479330492811076E-016
   8.6000000000000021E-002    -2.2888779779547055E-015
   8.9000000000000024E-002    -5.8493464973178849E-015
   9.2000000000000026E-002    -6.8529963246286814E-015
   9.5000000000000029E-002    -2.5554107851357497E-015
   9.8000000000000032E-002     7.1263217131004568E-015
  0.10100000000000003          1.7784585109274432E-014
  0.10400000000000004          2.1254302320424069E-014
  0.10700000000000004          9.8335488754068976E-015
  0.11000000000000004         -1.7335242556106568E-014
  0.11300000000000004         -4.9448661524527104E-014
  0.11600000000000005         -6.5292227617821676E-014
  0.11900000000000005         -4.2861894105021374E-014
  0.12200000000000005          2.5251830076818712E-014
  0.12500000000000006          1.1863860444535804E-013
  0.12800000000000006          1.8809160129555285E-013
  0.13100000000000006          1.7325941792925266E-013
  0.13400000000000006          3.5919459025106845E-014
  0.13700000000000007         -2.0522372285239678E-013
  0.14000000000000007         -4.5874731352312023E-013
  0.14300000000000007         -5.8062668197696768E-013
  0.14600000000000007         -4.3252885904456454E-013
  0.14900000000000008          3.9861325863593171E-014
  0.15200000000000008          7.4308337472914160E-013
  0.15500000000000008          1.4240972218076077E-012
  0.15800000000000008          1.7324676997858271E-012
  0.16100000000000009          1.3490484942282551E-012
  0.16400000000000009          1.4147465591326647E-013
  0.16700000000000009         -1.7138730102892182E-012
  0.17000000000000010         -3.7022892560799737E-012
  0.17300000000000010         -5.0668070919106634E-012
  0.17600000000000010         -5.0212061439476228E-012
  0.17899999999999999         -3.0273281789040331E-012
  0.18200000000000000          9.4644631776624432E-013
  0.18500000000000000          6.2749227671195913E-012
  0.18800000000000000          1.1702064558229429E-011
  0.19100000000000000          1.5567485786988288E-011
  0.19400000000000001          1.6202311327654796E-011
  0.19700000000000001          1.2410577346568951E-011
  0.20000000000000001          3.9166900651880377E-012
  0.20300000000000001         -8.3474539139159108E-012
  0.20600000000000002         -2.2214788742214447E-011
  0.20900000000000002         -3.4556045815312574E-011
  0.21200000000000002         -4.1820369156715400E-011
  0.21500000000000002         -4.0742149123690578E-011
  0.21800000000000003         -2.9073382899201545E-011
  0.22100000000000003         -6.2029852863807003E-012
  0.22400000000000003          2.6434339090426671E-011
  0.22700000000000004          6.5199238118750299E-011
  0.23000000000000004          1.0433047337329538E-010
  0.23300000000000004          1.3624162722979168E-010
  0.23600000000000004          1.5201013128758297E-010
  0.23900000000000005          1.4204619939843457E-010
  0.24200000000000005          9.6911746190238207E-011
  0.24500000000000005          8.2082834685645367E-012
  0.24800000000000005         -1.3061679217431319E-010
  0.25100000000000006         -3.2373574078024541E-010
  0.25400000000000006         -5.7284566000342499E-010
  0.25700000000000006         -8.7758350530928416E-010
  0.26000000000000006         -1.2363889538702106E-009
  0.26300000000000007         -1.6476472876733998E-009
  0.26600000000000007         -2.1109171811066695E-009
  0.26900000000000007         -2.6280904021964122E-009
  0.27200000000000008         -3.2044373141724164E-009
  0.27500000000000008         -3.8495376007220306E-009
  0.27800000000000008         -4.5781145554588269E-009
  0.28100000000000008         -5.4107350846747251E-009
  0.28400000000000009         -6.3742959650460577E-009
  0.28700000000000009         -7.5022181061486254E-009
  0.29000000000000009         -8.8343582347619790E-009
  0.29300000000000009         -1.0416728588873385E-008
  0.29600000000000010         -1.2301210715237950E-008
  0.29900000000000010         -1.4545399699420112E-008
  0.30200000000000010         -1.7212721781951902E-008
  0.30499999999999999         -2.0372840771485455E-008
  0.30800000000000000         -2.4102325169921298E-008
  0.31100000000000000         -2.8485662776748326E-008
  0.31400000000000000         -3.3616628671608966E-008
  0.31700000000000000         -3.9599976158611713E-008
  0.32000000000000001         -4.6553468581246023E-008
  0.32300000000000001         -5.4610170825772657E-008
  0.32600000000000001         -6.3920703979292856E-008
  0.32900000000000001         -7.4655430718408004E-008
  0.33200000000000002         -8.7006643372263722E-008
  0.33500000000000002         -1.0119054910128872E-007
  0.33800000000000002         -1.1744922089659321E-007
  0.34100000000000003         -1.3605263385922292E-007
  0.34400000000000003         -1.5730046830080325E-007
  0.34700000000000003         -1.8152363189399557E-007
  0.35000000000000003         -2.0908589457317884E-007
  0.35300000000000004         -2.4038506457086610E-007
  0.35600000000000004         -2.7585419947575761E-007
  0.35900000000000004         -3.1596297404707896E-007
  0.36200000000000004         -3.6121847598891888E-007
  0.36500000000000005         -4.1216657920188950E-007
  0.36800000000000005         -4.6939261944990289E-007
  0.37100000000000005         -5.3352167935119122E-007
  0.37400000000000005         -6.0521947613132851E-007
  0.37700000000000006         -6.8519161880086796E-007
  0.38000000000000006         -7.7418294719406616E-007
  0.38300000000000006         -8.7297611550844742E-007
  0.38600000000000007         -9.8238927976609331E-007
  0.38900000000000007         -1.1032731401740787E-006
  0.39200000000000007         -1.2365064109073861E-006
  0.39500000000000007         -1.3829909503195821E-006
  0.39800000000000008         -1.5436440552263407E-006
  0.40100000000000008         -1.7193926086086193E-006
  0.40400000000000008         -1.9111615675447752E-006
  0.40700000000000008         -2.1198653485457928E-006
  0.41000000000000009         -2.3463920677177522E-006
  0.41300000000000009         -2.5915940054139434E-006
  0.41600000000000009         -2.8562723332923792E-006
  0.41900000000000009         -3.1411591356801448E-006
  0.42200000000000010         -3.4469017603295695E-006
  0.42500000000000010         -3.7740394991146451E-006
  0.42800000000000010         -4.1229947212694284E-006
  0.43100000000000011         -4.4940412791945855E-006
  0.43400000000000000         -4.8872828996131804E-006
  0.43700000000000000         -5.3026401644903341E-006
  0.44000000000000000         -5.7398151435549473E-006
  0.44300000000000000         -6.1982782930912140E-006
  0.44600000000000001         -6.6772426144573741E-006
  0.44900000000000001         -7.1756318468783605E-006
  0.45200000000000001         -7.6920712545235508E-006
  0.45500000000000002         -8.2248614354137762E-006
  0.45800000000000002         -8.7719609769523403E-006
  0.46100000000000002         -9.3309534008708622E-006
  0.46400000000000002         -9.8990565348350727E-006
  0.46700000000000003         -1.0473097505054550E-005
  0.47000000000000003         -1.1049494371242450E-005
  0.47300000000000003         -1.1624269948701070E-005
  0.47600000000000003         -1.2193045367954927E-005
  0.47900000000000004         -1.2751039409569318E-005
  0.48200000000000004         -1.3293084895353449E-005
  0.48500000000000004         -1.3813654311996077E-005
  0.48800000000000004         -1.4306860373086731E-005
  0.49100000000000005         -1.4766508910560103E-005
  0.49400000000000005         -1.5186124478931408E-005
  0.49700000000000005         -1.5558995589935901E-005
  0.50000000000000000         -1.5878231084480245E-005
  0.50300000000000011         -1.6136818143390237E-005
  0.50600000000000001         -1.6327669563272104E-005
  0.50900000000000012         -1.6443728161842480E-005
  0.51200000000000001         -1.6478011842009680E-005
  0.51500000000000012         -1.6423722770768489E-005
  0.51800000000000002         -1.6274312027202281E-005
  0.52100000000000013         -1.6023572040762539E-005
  0.52400000000000002         -1.5665755625798701E-005
  0.52700000000000014         -1.5195634433023775E-005
  0.53000000000000003         -1.4608629930466447E-005
  0.53300000000000014         -1.3900922728056100E-005
  0.53600000000000003         -1.3069463746211784E-005
  0.53900000000000015         -1.2112115365844910E-005
  0.54200000000000004         -1.1027802331617433E-005
  0.54500000000000015         -9.8164479419554183E-006
  0.54800000000000004         -8.4791993963304623E-006
  0.55100000000000016         -7.0183598621209875E-006
  0.55400000000000005         -5.4374704607960179E-006
  0.55700000000000016         -3.7414288197182889E-006
  0.56000000000000005         -1.9363754483437434E-006
  0.56299999999999994         -2.9836144204714889E-008
  0.56600000000000006          1.9694397456718473E-006
  0.56899999999999995          4.0513874102353978E-006
  0.57200000000000006          6.2046457550058775E-006
  0.57499999999999996          8.4167146805479983E-006
  0.57800000000000007          1.0673984053723515E-005
  0.58099999999999996          1.2961816882757814E-005
  0.58400000000000007          1.5264747792998342E-005
  0.58699999999999997          1.7566450010424934E-005
  0.59000000000000008          1.9850068613905537E-005
  0.59299999999999997          2.2098190527132182E-005
  0.59600000000000009          2.4293156728309024E-005
  0.59899999999999998          2.6417150536189648E-005
  0.60200000000000009          2.8452434134362152E-005
  0.60500000000000020          3.0381537378555529E-005
  0.60800000000000010          3.2187404751455905E-005
  0.61100000000000021          3.3853654366472211E-005
  0.61400000000000010          3.5364715445385311E-005
  0.61700000000000021          3.6706013621591496E-005
  0.62000000000000011          3.7864221261015567E-005
  0.62300000000000022          3.8827335867131985E-005
  0.62600000000000011          3.9584939851078927E-005
  0.62900000000000000          4.0128215568399576E-005
  0.63200000000000012          4.0450152162680101E-005
  0.63500000000000001          4.0545619756740942E-005
  0.63800000000000012          4.0411448504433242E-005
  0.64100000000000001          4.0046497789848989E-005
  0.64400000000000013          3.9451670576700259E-005
  0.64700000000000002          3.8629969507833172E-005
  0.65000000000000013          3.7586446977732119E-005
  0.65300000000000002          3.6328122726220559E-005
  0.65600000000000014          3.4863994476758505E-005
  0.65900000000000003          3.3204880851396491E-005
  0.66200000000000014          3.1363391338266159E-005
  0.66500000000000004          2.9353664667807943E-005
  0.66800000000000015          2.7191411896281091E-005
  0.67100000000000004          2.4893518765305636E-005
  0.67400000000000015          2.2477990866593330E-005
  0.67700000000000005          1.9963769153124643E-005
  0.68000000000000016          1.7370484367620758E-005
  0.68300000000000005          1.4718176923510426E-005
  0.68600000000000017          1.2027266416778802E-005
  0.68900000000000006          9.3181011603481235E-006
  0.69200000000000017          6.6109027013832164E-006
  0.69500000000000006          3.9255347099537408E-006
  0.69800000000000018          1.2812068423170260E-006
  0.70100000000000007         -1.3035639728289474E-006
  0.70400000000000018         -3.8112731449743295E-006
  0.70700000000000007         -6.2255158956594792E-006
  0.71000000000000019         -8.5310843301690212E-006
  0.71300000000000008         -1.0714174065361108E-005
  0.71600000000000019         -1.2762562796617692E-005
  0.71900000000000008         -1.4665496221265941E-005
  0.72200000000000020         -1.6413939562333375E-005
  0.72500000000000009         -1.8000519859517183E-005
  0.72800000000000020         -1.9419549924787506E-005
  0.73100000000000009         -2.0667064835943923E-005
  0.73400000000000021         -2.1740698721008873E-005
  0.73700000000000010         -2.2639810118692606E-005
  0.74000000000000021         -2.3365298818745797E-005
  0.74300000000000010         -2.3919589238524228E-005
  0.74600000000000022         -2.4306596189045219E-005
  0.74900000000000011         -2.4531417253990307E-005
  0.75200000000000022         -2.4600399884358386E-005
  0.75500000000000012         -2.4520921696068015E-005
  0.75800000000000001         -2.4301316059954934E-005
  0.76100000000000012         -2.3950800796278240E-005
  0.76400000000000001         -2.3479184287849565E-005
  0.76700000000000013         -2.2896843891992160E-005
  0.77000000000000002         -2.2214564437393852E-005
  0.77300000000000013         -2.1443371205102627E-005
  0.77600000000000002         -2.0594350924654630E-005
  0.77900000000000014         -1.9678665838270906E-005
  0.78200000000000003         -1.8707363381635545E-005
  0.78500000000000014         -1.7691280612984788E-005
  0.78800000000000003         -1.6640921984283147E-005
  0.79100000000000015         -1.5566394280519234E-005
  0.79400000000000004         -1.4477329278258743E-005
  0.79700000000000015         -1.3382750902816355E-005
  0.80000000000000004         -1.2291109306188407E-005
  0.80300000000000016         -1.1210233858614917E-005
  0.80600000000000005         -1.0147263567937186E-005
  0.80900000000000016         -9.1086329968568841E-006
  0.81200000000000006         -8.1000508942838032E-006
  0.81500000000000017         -7.1265178744424304E-006
  0.81800000000000006         -6.1923110483866420E-006
  0.82100000000000017         -5.3009777872541384E-006
  0.82400000000000007         -4.4554042912182695E-006
  0.82700000000000018         -3.6578356036337192E-006
  0.83000000000000007         -2.9098878307683249E-006
  0.83300000000000018         -2.2125969143542913E-006
  0.83600000000000008         -1.5664782310145957E-006
  0.83900000000000019         -9.7153931139094966E-007
  0.84200000000000008         -4.2731543514832002E-007
  0.84500000000000020          6.7070504262079676E-008
  0.84800000000000009          5.1284225912040157E-007
  0.85100000000000020          9.1151492319524841E-007
  0.85400000000000009          1.2648728119573250E-006
  0.85700000000000021          1.5749055700731515E-006
  0.86000000000000010          1.8437923550970636E-006
  0.86300000000000021          2.0738708268955235E-006
  0.86600000000000010          2.2675887561459116E-006
  0.86900000000000022          2.4274391870662356E-006
  0.87200000000000011          2.5559353680919212E-006
  0.87500000000000022          2.6555795628204105E-006
  0.87800000000000011          2.7288454273487855E-006
  0.88100000000000001          2.7781655353321821E-006
  0.88400000000000012          2.8059260541404613E-006
  0.88700000000000001          2.8144365223740809E-006
  0.89000000000000012          2.8058988516308844E-006
  0.89300000000000002          2.7823897702835775E-006
  0.89600000000000013          2.7458564620441127E-006
  0.89900000000000002          2.6981296957582121E-006
  0.90200000000000014          2.6409109297768831E-006
  0.90500000000000003          2.5757871251714926E-006
  0.90800000000000014          2.5042326950384373E-006
  0.91100000000000003          2.4275639869566351E-006
  0.91400000000000015          2.3469707079606026E-006
  0.91700000000000004          2.2635172151911189E-006
  0.92000000000000015          2.1781432206291731E-006
  0.92300000000000004          2.0916937660142342E-006
  0.92600000000000016          2.0049255864176816E-006
  0.92900000000000005          1.9184966784434175E-006
  0.93200000000000016          1.8329570829346615E-006
  0.93500000000000005          1.7487592969866323E-006
  0.93800000000000017          1.6662836103273106E-006
  0.94100000000000006          1.5858504552516246E-006
  0.94400000000000017          1.5077133157570007E-006
  0.94700000000000006          1.4320861366020900E-006
  0.95000000000000018          1.3591350741740682E-006
  0.95300000000000007          1.2889619488579303E-006
  0.95600000000000018          1.2216111778946022E-006
  0.95900000000000007          1.1571167427324936E-006
  0.96200000000000019          1.0954947444246537E-006
  0.96500000000000008          1.0367412543609996E-006
  0.96800000000000019          9.8083265106760293E-007
  0.97100000000000009          9.2773489940294172E-007
  0.97400000000000020          8.7738264381240867E-007
  0.97700000000000009          8.2967232440152438E-007
  0.98000000000000020          7.8450655286279762E-007
  0.98300000000000010          7.4181463287508749E-007
  0.98600000000000021          7.0152186619637537E-007
  0.98900000000000010          6.6353474987449877E-007
  0.99200000000000021          6.2776296740341222E-007
  0.99500000000000011          5.9411109852865547E-007
  0.99800000000000022          5.6245845631168227E-007
   1.0010000000000001          5.3269044050094296E-007
   1.0040000000000002          5.0473088250341054E-007
   1.0070000000000001          4.7851292447379162E-007
   1.0100000000000000          4.5394275739375300E-007
   1.0130000000000001          4.3092180859548729E-007
   1.0160000000000000          4.0936868013364660E-007
   1.0190000000000001          3.8919518398861844E-007
   1.0220000000000000          3.7030188870227633E-007
   1.0250000000000001          3.5261656643227170E-007
   1.0280000000000000          3.3608624574904730E-007
   1.0310000000000001          3.2062465526004670E-007
   1.0340000000000000          3.0612869601447874E-007
   1.0370000000000001          2.9253255881266607E-007
   1.0400000000000000          2.7979091351641775E-007
   1.0430000000000001          2.6783596567370589E-007
   1.0460000000000000          2.5660388269417818E-007
   1.0490000000000002          2.4605332701933184E-007
   1.0520000000000000          2.3611864950706288E-007
   1.0550000000000002          2.2670389537175824E-007
   1.0580000000000001          2.1775241989801455E-007
   1.0610000000000002          2.0925210674757658E-007
   1.0640000000000001          2.0116851038390428E-007
   1.0670000000000002          1.9344302379932453E-007
   1.0700000000000001          1.8604066141004717E-007
   1.0730000000000002          1.7892772049214702E-007
   1.0760000000000001          1.7203911266003664E-007
   1.0790000000000002          1.6533335618716311E-007
   1.0820000000000001          1.5882453555757254E-007
   1.0850000000000002          1.5251157969971628E-007
   1.0880000000000001          1.4634624943921031E-007
   1.0910000000000002          1.4029507332554083E-007
   1.0940000000000001          1.3435239630068562E-007
   1.0970000000000002          1.2849242066835058E-007
