 -0.39999999999999997          0.0000000000000000     
 -0.39699999999999996          0.0000000000000000     
 -0.39399999999999996          0.0000000000000000     
 -0.39099999999999996          0.0000000000000000     
 -0.38799999999999996          0.0000000000000000     
 -0.38499999999999995          0.0000000000000000     
 -0.38199999999999995          0.0000000000000000     
 -0.37899999999999995          0.0000000000000000     
 -0.37599999999999995          0.0000000000000000     
 -0.37299999999999994          0.0000000000000000     
 -0.37000000000000000          0.0000000000000000     
 -0.36699999999999999          0.0000000000000000     
 -0.36399999999999999          0.0000000000000000     
 -0.36099999999999999          0.0000000000000000     
 -0.35799999999999998          0.0000000000000000     
 -0.35499999999999998          0.0000000000000000     
 -0.35199999999999998          0.0000000000000000     
 -0.34899999999999998          0.0000000000000000     
 -0.34599999999999997          0.0000000000000000     
 -0.34299999999999997          0.0000000000000000     
 -0.33999999999999997          0.0000000000000000     
 -0.33699999999999997          0.0000000000000000     
 -0.33399999999999996          0.0000000000000000     
 -0.33099999999999996          0.0000000000000000     
 -0.32799999999999996          0.0000000000000000     
 -0.32499999999999996          0.0000000000000000     
 -0.32199999999999995          0.0000000000000000     
 -0.31899999999999995          0.0000000000000000     
 -0.31599999999999995          0.0000000000000000     
 -0.31299999999999994          0.0000000000000000     
 -0.30999999999999994          0.0000000000000000     
 -0.30699999999999994          0.0000000000000000     
 -0.30399999999999994          0.0000000000000000     
 -0.30099999999999993          0.0000000000000000     
 -0.29799999999999993          0.0000000000000000     
 -0.29499999999999998          0.0000000000000000     
 -0.29199999999999998          0.0000000000000000     
 -0.28899999999999998          0.0000000000000000     
 -0.28599999999999998          0.0000000000000000     
 -0.28299999999999997          0.0000000000000000     
 -0.27999999999999997          0.0000000000000000     
 -0.27699999999999997          0.0000000000000000     
 -0.27399999999999997          0.0000000000000000     
 -0.27099999999999996          0.0000000000000000     
 -0.26799999999999996          0.0000000000000000     
 -0.26499999999999996          0.0000000000000000     
 -0.26199999999999996          0.0000000000000000     
 -0.25899999999999995          0.0000000000000000     
 -0.25599999999999995          0.0000000000000000     
 -0.25300000000000000          0.0000000000000000     
 -0.24999999999999997         -6.3558733164166469E-042
 -0.24699999999999997          1.1695498322290059E-041
 -0.24399999999999997          4.6299867987894412E-042
 -0.24099999999999996         -2.1177149552035690E-041
 -0.23799999999999996          4.2436153388086537E-041
 -0.23499999999999996          2.7177317945620098E-040
 -0.23199999999999996          4.8572248707879392E-040
 -0.22899999999999995         -3.2021271241760644E-039
 -0.22599999999999995          1.8919171682473477E-039
 -0.22299999999999998          8.8204786624056745E-039
 -0.21999999999999997         -1.5922427822302102E-038
 -0.21699999999999997         -3.3236292782565112E-038
 -0.21399999999999997          5.3050457487852030E-038
 -0.21099999999999997          1.1684325145462380E-037
 -0.20799999999999996         -2.2784766428384080E-037
 -0.20499999999999996         -3.9178968569831788E-037
 -0.20199999999999996          8.3923939476202726E-037
 -0.19899999999999995          1.2752973501229560E-036
 -0.19599999999999995         -2.8014973271807781E-036
 -0.19299999999999995         -4.0798884140631388E-036
 -0.18999999999999997          8.2986771902489124E-036
 -0.18699999999999997          1.2789309067655682E-035
 -0.18399999999999997         -2.1327896435576298E-035
 -0.18099999999999997         -3.8499040480060955E-035
 -0.17799999999999996          4.4608202998344811E-035
 -0.17499999999999996          1.0729801794756467E-034
 -0.17199999999999996         -6.0555126406390899E-035
 -0.16899999999999996         -2.6115992376413665E-034
 -0.16599999999999995         -3.2109857257717789E-035
 -0.16299999999999995          4.9134126126614509E-034
 -0.15999999999999998          5.4840651938178820E-034
 -0.15699999999999997         -4.0498097788886183E-034
 -0.15399999999999997         -2.0573771155878978E-033
 -0.15099999999999997         -1.7653110519758258E-033
 -0.14799999999999996          4.4163940689154441E-033
 -0.14499999999999996          1.0811425476656163E-032
 -0.14199999999999996         -2.1319112678829852E-033
 -0.13899999999999996         -3.3486817123624799E-032
 -0.13599999999999995         -2.7399057830328555E-032
 -0.13299999999999995          6.0542484381678488E-032
 -0.12999999999999995          1.3423113010394315E-031
 -0.12699999999999995         -2.6074789891380584E-033
 -0.12399999999999994         -3.4169817836498500E-031
 -0.12099999999999994         -4.1757822925494650E-031
 -0.11799999999999994          3.5388150295092970E-031
 -0.11499999999999994          1.5693823540557805E-030
 -0.11199999999999993          1.1151934664363158E-030
 -0.10899999999999999         -2.7301240690736026E-030
 -0.10599999999999998         -6.5186734264196604E-030
 -0.10299999999999998         -1.3759475589789500E-030
  -9.9999999999999978E-002     1.5045187479396377E-029
  -9.6999999999999975E-002     2.3555234505061826E-029
  -9.3999999999999972E-002    -6.4454799471143890E-030
  -9.0999999999999970E-002    -6.8574398071734465E-029
  -8.7999999999999967E-002    -7.9100130175630360E-029
  -8.4999999999999964E-002     6.2250432366208769E-029
  -8.1999999999999962E-002     2.8839877787659528E-028
  -7.8999999999999959E-002     2.5555770950577932E-028
  -7.5999999999999956E-002    -3.5624472318710272E-028
  -7.2999999999999954E-002    -1.1541409542791374E-027
  -6.9999999999999951E-002    -7.9779266931170292E-028
  -6.6999999999999948E-002     1.6802789606460449E-027
  -6.3999999999999946E-002     4.4498438370984145E-027
  -6.0999999999999943E-002     2.5219008825728083E-027
  -5.7999999999999940E-002    -7.0716610656593079E-027
  -5.4999999999999938E-002    -1.6835134731221431E-026
  -5.1999999999999935E-002    -8.5063481374679468E-027
  -4.8999999999999932E-002     2.7585996098414965E-026
  -4.5999999999999985E-002     6.2937279717065472E-026
  -4.2999999999999983E-002     3.1554094587449761E-026
  -3.9999999999999980E-002    -1.0065991637908137E-025
  -3.6999999999999977E-002    -2.3252267599200795E-025
  -3.3999999999999975E-002    -1.2883336904120493E-025
  -3.0999999999999972E-002     3.4230092476892785E-025
  -2.7999999999999969E-002     8.4650549711529102E-025
  -2.4999999999999967E-002     5.5717897180008849E-025
  -2.1999999999999964E-002    -1.0675332540480692E-024
  -1.8999999999999961E-002    -3.0112722701018007E-024
  -1.5999999999999959E-002    -2.4330696249935005E-024
  -1.2999999999999956E-002     2.9247655361786527E-024
  -9.9999999999999534E-003     1.0332290251573899E-023
  -6.9999999999999507E-003     1.0358666923765004E-023
  -3.9999999999999480E-003    -6.2204790172165022E-024
  -9.9999999999994538E-004    -3.3596119982406332E-023
   2.0000000000000573E-003    -4.2017184578168234E-023
   5.0000000000000600E-003     4.5882533453397142E-024
   8.0000000000000626E-003     1.0083151243988268E-022
   1.1000000000000065E-002     1.5968075870063607E-022
   1.4000000000000068E-002     4.8481553988396425E-023
   1.7000000000000015E-002    -2.6673951881640124E-022
   2.0000000000000018E-002    -5.5949023989286577E-022
   2.3000000000000020E-002    -3.7821777669847253E-022
   2.6000000000000023E-002     5.5709237724972775E-022
   2.9000000000000026E-002     1.7686286519195755E-021
   3.2000000000000028E-002     1.8622534332470004E-021
   3.5000000000000031E-002    -5.3194735085501722E-022
   3.8000000000000034E-002    -4.8564391332843579E-021
   4.1000000000000036E-002    -7.3364598492833550E-021
   4.4000000000000039E-002    -2.6557383003885265E-021
   4.7000000000000042E-002     1.0609788828926006E-020
   5.0000000000000044E-002     2.4126237210687659E-020
   5.3000000000000047E-002     2.0643839955666388E-020
   5.6000000000000050E-002    -1.2949313602834312E-020
   5.9000000000000052E-002    -6.4968424679530061E-020
   6.2000000000000055E-002    -8.9089991396324351E-020
   6.5000000000000058E-002    -2.7662835976123883E-020
   6.8000000000000060E-002     1.2912564132322017E-019
   7.1000000000000063E-002     2.8603984439115562E-019
   7.4000000000000066E-002     2.5703110516188743E-019
   7.7000000000000068E-002    -1.0142914527200659E-019
   8.0000000000000016E-002    -6.8592041370126797E-019
   8.3000000000000018E-002    -1.0408744290856751E-018
   8.6000000000000021E-002    -5.5633686635328732E-019
   8.9000000000000024E-002     9.9250077069291984E-019
   9.2000000000000026E-002     2.8665810544739500E-018
   9.5000000000000029E-002     3.3356177659187243E-018
   9.8000000000000032E-002     6.7894704349002465E-019
  0.10100000000000003         -5.0100767791683479E-018
  0.10400000000000004         -1.0443070224474975E-017
  0.10700000000000004         -9.9064403514756055E-018
  0.11000000000000004          9.5616344759883861E-019
  0.11300000000000004          1.9824515787554380E-017
  0.11600000000000005          3.4867234070423324E-017
  0.11900000000000005          2.8863380896186341E-017
  0.12200000000000005         -8.7039574356481917E-018
  0.12500000000000006         -6.7233076066147903E-017
  0.12800000000000006         -1.0972047451285874E-016
  0.13100000000000006         -8.7251103290575309E-017
  0.13400000000000006          2.6743766614172982E-017
  0.13700000000000007          1.9940721424575242E-016
  0.14000000000000007          3.2783241501799540E-016
  0.14300000000000007          2.7906461496765138E-016
  0.14600000000000007         -2.2605540289688510E-017
  0.14900000000000008         -5.0351225770945900E-016
  0.15200000000000008         -9.1162944198444024E-016
  0.15500000000000008         -9.0458587977501364E-016
  0.15800000000000008         -2.4774115353751415E-016
  0.16100000000000009          9.6691458226349115E-016
  0.16400000000000009          2.2232215011040144E-015
  0.16700000000000009          2.7218827526379385E-015
  0.17000000000000010          1.7639139279535796E-015
  0.17300000000000010         -7.7452525364769051E-016
  0.17600000000000010         -4.1345119400671934E-015
  0.17899999999999999         -6.7712616623546165E-015
  0.18200000000000000         -6.9234479047439568E-015
  0.18500000000000000         -3.4745305978037276E-015
  0.18800000000000000          3.2726340951299669E-015
  0.19100000000000000          1.1315798735932250E-014
  0.19400000000000001          1.7400212531225734E-014
  0.19700000000000001          1.8117464477084533E-014
  0.20000000000000001          1.1288238454156144E-014
  0.20300000000000001         -2.8830314786239358E-015
  0.20600000000000002         -2.1333988606689443E-014
  0.20900000000000002         -3.8584034699998492E-014
  0.21200000000000002         -4.8043409935894532E-014
  0.21500000000000002         -4.3901670286979630E-014
  0.21800000000000003         -2.3137471393991074E-014
  0.22100000000000003          1.2888511891434733E-014
  0.22400000000000003          5.7775797930739079E-014
  0.22700000000000004          1.0072874032801823E-013
  0.23000000000000004          1.2857116070797779E-013
  0.23300000000000004          1.2880244199762965E-013
  0.23600000000000004          9.3005866310138506E-014
  0.23900000000000005          1.9762520055214038E-014
  0.24200000000000005         -8.3649318182888287E-014
  0.24500000000000005         -2.0114993063800930E-013
  0.24800000000000005         -3.0937463253314395E-013
  0.25100000000000006         -3.8065058867415742E-013
  0.25400000000000006         -3.8727047926386831E-013
  0.25700000000000006         -3.0690452660260218E-013
  0.26000000000000006         -1.2875771586235696E-013
  0.26300000000000007          1.4047160986444457E-013
  0.26600000000000007          4.7240955552262486E-013
  0.26900000000000007          8.1646932668833850E-013
  0.27200000000000008          1.1043686318255092E-012
  0.27500000000000008          1.2599145468587853E-012
  0.27800000000000008          1.2127312788590764E-012
  0.28100000000000008          9.1338942295988956E-013
  0.28400000000000009          3.4697911857081876E-013
  0.28700000000000009         -4.5741341823190698E-013
  0.29000000000000009         -1.4229925160962816E-012
  0.29300000000000009         -2.4281252120482989E-012
  0.29600000000000010         -3.3160564797892601E-012
  0.29900000000000010         -3.9112691215537435E-012
  0.30200000000000010         -4.0416389773233903E-012
  0.30499999999999999         -3.5645195720440745E-012
  0.30800000000000000         -2.3936921846250572E-012
  0.31100000000000000         -5.2328833813032186E-013
  0.31400000000000000          1.9553474541420688E-012
  0.31700000000000000          4.8471634472188561E-012
  0.32000000000000001          7.8594029743983759E-012
  0.32300000000000001          1.0620964538809425E-011
  0.32600000000000001          1.2714791261457155E-011
  0.32900000000000001          1.3721762137707314E-011
  0.33200000000000002          1.3273094766736085E-011
  0.33500000000000002          1.1106569951377312E-011
  0.33800000000000002          7.1202986120527112E-012
  0.34100000000000003          1.4169401388319029E-012
  0.34400000000000003         -5.6685215313013684E-012
  0.34700000000000003         -1.3562866290921085E-011
  0.35000000000000003         -2.1474051455367894E-011
  0.35300000000000004         -2.8437091519107070E-011
  0.35600000000000004         -3.3385183678527059E-011
  0.35900000000000004         -3.5242663098983940E-011
  0.36200000000000004         -3.3033792550851099E-011
  0.36500000000000005         -2.5999320074476139E-011
  0.36800000000000005         -1.3710933811236719E-011
  0.37100000000000005          3.8263605658721247E-012
  0.37400000000000005          2.6093526751639911E-011
  0.37700000000000006          5.2005443478831369E-011
  0.38000000000000006          7.9892830329271496E-011
  0.38300000000000006          1.0752018182483726E-010
  0.38600000000000007          1.3213916393697388E-010
  0.38900000000000007          1.5057439860355507E-010
  0.39200000000000007          1.5933389123636847E-010
  0.39500000000000007          1.5473461008937837E-010
  0.39800000000000008          1.3303029658887817E-010
  0.40100000000000008          9.0526819100144794E-011
  0.40400000000000008          2.3671779376677171E-011
  0.40700000000000008         -7.0895112954771831E-011
  0.41000000000000009         -1.9634251011350260E-010
  0.41300000000000009         -3.5571084563952554E-010
  0.41600000000000009         -5.5203957901505255E-010
  0.41900000000000009         -7.8856904292951325E-010
  0.42200000000000010         -1.0690101810014862E-009
  0.42500000000000010         -1.3978752659674200E-009
  0.42800000000000010         -1.7808683199660275E-009
  0.43100000000000011         -2.2253108843528972E-009
  0.43400000000000000         -2.7406063797573938E-009
  0.43700000000000000         -3.3387193893860949E-009
  0.44000000000000000         -4.0346693301062052E-009
  0.44300000000000000         -4.8470347052358603E-009
  0.44600000000000001         -5.7984397304733507E-009
  0.44900000000000001         -6.9160597645843346E-009
  0.45200000000000001         -8.2321171992997683E-009
  0.45500000000000002         -9.7844110147117054E-009
  0.45800000000000002         -1.1616824551699291E-008
  0.46100000000000002         -1.3779945565489637E-008
  0.46400000000000002         -1.6331680728325641E-008
  0.46700000000000003         -1.9337960236394449E-008
  0.47000000000000003         -2.2873575040153074E-008
  0.47300000000000003         -2.7023101736510489E-008
  0.47600000000000003         -3.1881919858501354E-008
  0.47900000000000004         -3.7557439407440041E-008
  0.48200000000000004         -4.4170402264421478E-008
  0.48500000000000004         -5.1856404830780444E-008
  0.48800000000000004         -6.0767513655982005E-008
  0.49100000000000005         -7.1074018515881093E-008
  0.49400000000000005         -8.2966313532359136E-008
  0.49700000000000005         -9.6656882694462314E-008
  0.50000000000000000         -1.1238245383420839E-007
  0.50300000000000011         -1.3040577171169426E-007
  0.50600000000000001         -1.5101828767993322E-007
  0.50900000000000012         -1.7454179630983830E-007
  0.51200000000000001         -2.0133036617324603E-007
  0.51500000000000012         -2.3177295912194342E-007
  0.51800000000000002         -2.6629452421916764E-007
  0.52100000000000013         -3.0535800313594872E-007
  0.52400000000000002         -3.4946576751722962E-007
  0.52700000000000014         -3.9916080253205436E-007
  0.53000000000000003         -4.5502749589650664E-007
  0.53300000000000014         -5.1769216092119584E-007
  0.53600000000000003         -5.8782274579312145E-007
  0.53900000000000015         -6.6612874086456021E-007
  0.54200000000000004         -7.5336101851550531E-007
  0.54500000000000015         -8.5030818102551810E-007
  0.54800000000000004         -9.5779658231283113E-007
  0.55100000000000016         -1.0766856159587475E-006
  0.55400000000000005         -1.2078636059175903E-006
  0.55700000000000016         -1.3522432570191089E-006
  0.56000000000000005         -1.5107562434467726E-006
  0.56299999999999994         -1.6843433800980893E-006
  0.56600000000000006         -1.8739478996620809E-006
  0.56899999999999995         -2.0805063246400510E-006
  0.57200000000000006         -2.3049353287275640E-006
  0.57499999999999996         -2.5481201610448178E-006
  0.57800000000000007         -2.8108981057452097E-006
  0.58099999999999996         -3.0940466160822554E-006
  0.58400000000000007         -3.3982626341352872E-006
  0.58699999999999997         -3.7241434519308831E-006
  0.59000000000000008         -4.0721707215732742E-006
  0.59299999999999997         -4.4426869579198946E-006
  0.59600000000000009         -4.8358704271316003E-006
  0.59899999999999998         -5.2517211264029613E-006
  0.60200000000000009         -5.6900228880424090E-006
  0.60500000000000020         -6.1503318977464802E-006
  0.60800000000000010         -6.6319493904741375E-006
  0.61100000000000021         -7.1338931903698151E-006
  0.61400000000000010         -7.6548742743740115E-006
  0.61700000000000021         -8.1932834035456849E-006
  0.62000000000000011         -8.7471662358868108E-006
  0.62300000000000022         -9.3142043241287386E-006
  0.62600000000000011         -9.8916819604405218E-006
  0.62900000000000000         -1.0476506933549282E-005
  0.63200000000000012         -1.1065181719357294E-005
  0.63500000000000001         -1.1653780857443230E-005
  0.63800000000000012         -1.2237988671250986E-005
  0.64100000000000001         -1.2813067808988470E-005
  0.64400000000000013         -1.3373885008102581E-005
  0.64700000000000002         -1.3914934071480635E-005
  0.65000000000000013         -1.4430330276827178E-005
  0.65300000000000002         -1.4913869510135579E-005
  0.65600000000000014         -1.5359035066444668E-005
  0.65900000000000003         -1.5759079578423708E-005
  0.66200000000000014         -1.6107001080969268E-005
  0.66500000000000004         -1.6395702783138374E-005
  0.66800000000000015         -1.6617956262656046E-005
  0.67100000000000004         -1.6766530409963443E-005
  0.67400000000000015         -1.6834259138636298E-005
  0.67700000000000005         -1.6814114865739565E-005
  0.68000000000000016         -1.6699295240176325E-005
  0.68300000000000005         -1.6483313471582904E-005
  0.68600000000000017         -1.6160128624367004E-005
  0.68900000000000006         -1.5724132805839836E-005
  0.69200000000000017         -1.5170414193370806E-005
  0.69500000000000006         -1.4494744721246870E-005
  0.69800000000000018         -1.3693703923510951E-005
  0.70100000000000007         -1.2764748083089503E-005
  0.70400000000000018         -1.1706333008032441E-005
  0.70700000000000007         -1.0518008036437552E-005
  0.71000000000000019         -9.2004168860013109E-006
  0.71300000000000008         -7.7554312437546236E-006
  0.71600000000000019         -6.1862354599939552E-006
  0.71900000000000008         -4.4972593863936670E-006
  0.72200000000000020         -2.6942787078701126E-006
  0.72500000000000009         -7.8443987607283708E-007
  0.72800000000000020          1.2238046387629418E-006
  0.73100000000000009          3.3206328786560491E-006
  0.73400000000000021          5.4949713668889217E-006
  0.73700000000000010          7.7345041289114548E-006
  0.74000000000000021          1.0025752307015251E-005
  0.74300000000000010          1.2354174107593720E-005
  0.74600000000000022          1.4704264704269971E-005
  0.74900000000000011          1.7059682774642987E-005
  0.75200000000000022          1.9403394421772770E-005
  0.75500000000000012          2.1717818900891063E-005
  0.75800000000000001          2.3984997590952736E-005
  0.76100000000000012          2.6186773255643655E-005
  0.76400000000000001          2.8304989712534751E-005
  0.76700000000000013          3.0321667780663011E-005
  0.77000000000000002          3.2219182068293165E-005
  0.77300000000000013          3.3980513147063317E-005
  0.77600000000000002          3.5589405273541656E-005
  0.77900000000000014          3.7030577391558613E-005
  0.78200000000000003          3.8289899028745911E-005
  0.78500000000000014          3.9354555863641726E-005
  0.78800000000000003          4.0213238684444181E-005
  0.79100000000000015          4.0856268029874354E-005
  0.79400000000000004          4.1275720642416794E-005
  0.79700000000000015          4.1465602318258187E-005
  0.80000000000000004          4.1421920848147214E-005
  0.80300000000000016          4.1142666194862737E-005
  0.80600000000000005          4.0627928107284720E-005
  0.80900000000000016          3.9879933791991128E-005
  0.81200000000000006          3.8902967022353436E-005
  0.81500000000000017          3.7703433661936169E-005
  0.81800000000000006          3.6289723921204291E-005
  0.82100000000000017          3.4672225480275709E-005
  0.82400000000000007          3.2863064425833626E-005
  0.82700000000000018          3.0876118119900505E-005
  0.83000000000000007          2.8726772444340346E-005
  0.83300000000000018          2.6431797753554132E-005
  0.83600000000000008          2.4009102285353046E-005
  0.83900000000000019          2.1477774053389549E-005
  0.84200000000000008          1.8857562208120132E-005
  0.84500000000000020          1.6168804075623712E-005
  0.84800000000000009          1.3432205929853529E-005
  0.85100000000000020          1.0668577247690589E-005
  0.85400000000000009          7.8986237098345540E-006
  0.85700000000000021          5.1427733717151781E-006
  0.86000000000000010          2.4209586977612351E-006
  0.86300000000000021         -2.4760305852095644E-007
  0.86600000000000010         -2.8446368201521559E-006
  0.86900000000000022         -5.3528695430705233E-006
  0.87200000000000011         -7.7563506069203798E-006
  0.87500000000000022         -1.0040425831867122E-005
  0.87800000000000011         -1.2191963644220151E-005
  0.88100000000000001         -1.4199380303286608E-005
  0.88400000000000012         -1.6052719953212544E-005
  0.88700000000000001         -1.7743765295088259E-005
  0.89000000000000012         -1.9265968991805088E-005
  0.89300000000000002         -2.0614629867048075E-005
  0.89600000000000013         -2.1786689968249321E-005
  0.89900000000000002         -2.2780780577047822E-005
  0.90200000000000014         -2.3597194834285523E-005
  0.90500000000000003         -2.4237777155835303E-005
  0.90800000000000014         -2.4705834507699530E-005
  0.91100000000000003         -2.5006072556123640E-005
  0.91400000000000015         -2.5144449209912993E-005
  0.91700000000000004         -2.5128090814659172E-005
  0.92000000000000015         -2.4965105136445118E-005
  0.92300000000000004         -2.4664479314673678E-005
  0.92600000000000016         -2.4235962798186298E-005
  0.92900000000000005         -2.3689883541977215E-005
  0.93200000000000016         -2.3037032893936811E-005
  0.93500000000000005         -2.2288529251282347E-005
  0.93800000000000017         -2.1455686659024064E-005
  0.94100000000000006         -2.0549861607177819E-005
  0.94400000000000017         -1.9582347643409709E-005
  0.94700000000000006         -1.8564259966495600E-005
  0.95000000000000018         -1.7506424092913732E-005
  0.95300000000000007         -1.6419295253596657E-005
  0.95600000000000018         -1.5312885703304588E-005
  0.95900000000000007         -1.4196674882191396E-005
  0.96200000000000019         -1.3079555743723333E-005
  0.96500000000000008         -1.1969791282464282E-005
  0.96800000000000019         -1.0874960893214482E-005
  0.97100000000000009         -9.8019385747193957E-006
  0.97400000000000020         -8.7568677411228856E-006
  0.97700000000000009         -7.7451817377268620E-006
  0.98000000000000020         -6.7715812187790924E-006
  0.98300000000000010         -5.8400408627276201E-006
  0.98600000000000021         -4.9538346917208975E-006
  0.98900000000000010         -4.1155673782769756E-006
  0.99200000000000021         -3.3271982361728083E-006
  0.99500000000000011         -2.5900798913579574E-006
  0.99800000000000022         -1.9050079307229966E-006
   1.0010000000000001         -1.2722570800415053E-006
   1.0040000000000002         -6.9159730579517266E-007
   1.0070000000000001         -1.6236446608558197E-007
   1.0100000000000000          3.1648863412508550E-007
   1.0130000000000001          7.4634888388143967E-007
   1.0160000000000000          1.1288961542396164E-006
   1.0190000000000001          1.4660434997905026E-006
   1.0220000000000000          1.7599105607622952E-006
   1.0250000000000001          2.0128052701436228E-006
   1.0280000000000000          2.2271481012351983E-006
   1.0310000000000001          2.4054396573233883E-006
   1.0340000000000000          2.5502202659164074E-006
   1.0370000000000001          2.6640591116529794E-006
   1.0400000000000000          2.7494973515074548E-006
   1.0430000000000001          2.8090502064736531E-006
   1.0460000000000000          2.8451979654014415E-006
   1.0490000000000002          2.8603370866058984E-006
   1.0520000000000000          2.8567706896066181E-006
   1.0550000000000002          2.8366911561043947E-006
   1.0580000000000001          2.8021872453031644E-006
   1.0610000000000002          2.7552250785056592E-006
   1.0640000000000001          2.6976355723999843E-006
   1.0670000000000002          2.6311314792892283E-006
   1.0700000000000001          2.5572955706426755E-006
   1.0730000000000002          2.4775679268573169E-006
   1.0760000000000001          2.3932619599927601E-006
   1.0790000000000002          2.3055776929985337E-006
   1.0820000000000001          2.2156002383645243E-006
   1.0850000000000002          2.1242816472688984E-006
   1.0880000000000001          2.0324585352352063E-006
   1.0910000000000002          1.9408790237128360E-006
   1.0940000000000001          1.8501845414273855E-006
   1.0970000000000002          1.7609284177769914E-006
