 -0.39999999999999997          0.0000000000000000     
 -0.39699999999999996          0.0000000000000000     
 -0.39399999999999996          0.0000000000000000     
 -0.39099999999999996          0.0000000000000000     
 -0.38799999999999996          0.0000000000000000     
 -0.38499999999999995          0.0000000000000000     
 -0.38199999999999995          0.0000000000000000     
 -0.37899999999999995          0.0000000000000000     
 -0.37599999999999995          0.0000000000000000     
 -0.37299999999999994          0.0000000000000000     
 -0.37000000000000000          0.0000000000000000     
 -0.36699999999999999          0.0000000000000000     
 -0.36399999999999999          0.0000000000000000     
 -0.36099999999999999          0.0000000000000000     
 -0.35799999999999998          0.0000000000000000     
 -0.35499999999999998          0.0000000000000000     
 -0.35199999999999998          0.0000000000000000     
 -0.34899999999999998          0.0000000000000000     
 -0.34599999999999997          0.0000000000000000     
 -0.34299999999999997          0.0000000000000000     
 -0.33999999999999997          0.0000000000000000     
 -0.33699999999999997          0.0000000000000000     
 -0.33399999999999996          0.0000000000000000     
 -0.33099999999999996          0.0000000000000000     
 -0.32799999999999996          0.0000000000000000     
 -0.32499999999999996          0.0000000000000000     
 -0.32199999999999995          0.0000000000000000     
 -0.31899999999999995          0.0000000000000000     
 -0.31599999999999995          0.0000000000000000     
 -0.31299999999999994          0.0000000000000000     
 -0.30999999999999994          0.0000000000000000     
 -0.30699999999999994          0.0000000000000000     
 -0.30399999999999994          0.0000000000000000     
 -0.30099999999999993          0.0000000000000000     
 -0.29799999999999993          0.0000000000000000     
 -0.29499999999999998          0.0000000000000000     
 -0.29199999999999998          0.0000000000000000     
 -0.28899999999999998          0.0000000000000000     
 -0.28599999999999998          0.0000000000000000     
 -0.28299999999999997          0.0000000000000000     
 -0.27999999999999997          0.0000000000000000     
 -0.27699999999999997          0.0000000000000000     
 -0.27399999999999997          0.0000000000000000     
 -0.27099999999999996          0.0000000000000000     
 -0.26799999999999996          0.0000000000000000     
 -0.26499999999999996          0.0000000000000000     
 -0.26199999999999996          0.0000000000000000     
 -0.25899999999999995          0.0000000000000000     
 -0.25599999999999995          0.0000000000000000     
 -0.25300000000000000          0.0000000000000000     
 -0.24999999999999997          0.0000000000000000     
 -0.24699999999999997          0.0000000000000000     
 -0.24399999999999997          0.0000000000000000     
 -0.24099999999999996          0.0000000000000000     
 -0.23799999999999996          0.0000000000000000     
 -0.23499999999999996          0.0000000000000000     
 -0.23199999999999996          0.0000000000000000     
 -0.22899999999999995          0.0000000000000000     
 -0.22599999999999995          0.0000000000000000     
 -0.22299999999999998          0.0000000000000000     
 -0.21999999999999997          0.0000000000000000     
 -0.21699999999999997          0.0000000000000000     
 -0.21399999999999997          0.0000000000000000     
 -0.21099999999999997          0.0000000000000000     
 -0.20799999999999996          0.0000000000000000     
 -0.20499999999999996          0.0000000000000000     
 -0.20199999999999996          0.0000000000000000     
 -0.19899999999999995          0.0000000000000000     
 -0.19599999999999995          0.0000000000000000     
 -0.19299999999999995          0.0000000000000000     
 -0.18999999999999997          0.0000000000000000     
 -0.18699999999999997          0.0000000000000000     
 -0.18399999999999997          0.0000000000000000     
 -0.18099999999999997          0.0000000000000000     
 -0.17799999999999996          0.0000000000000000     
 -0.17499999999999996          0.0000000000000000     
 -0.17199999999999996          0.0000000000000000     
 -0.16899999999999996          0.0000000000000000     
 -0.16599999999999995          0.0000000000000000     
 -0.16299999999999995          0.0000000000000000     
 -0.15999999999999998          0.0000000000000000     
 -0.15699999999999997          0.0000000000000000     
 -0.15399999999999997          0.0000000000000000     
 -0.15099999999999997          0.0000000000000000     
 -0.14799999999999996          0.0000000000000000     
 -0.14499999999999996          0.0000000000000000     
 -0.14199999999999996          0.0000000000000000     
 -0.13899999999999996          0.0000000000000000     
 -0.13599999999999995          0.0000000000000000     
 -0.13299999999999995          0.0000000000000000     
 -0.12999999999999995          0.0000000000000000     
 -0.12699999999999995          0.0000000000000000     
 -0.12399999999999994          0.0000000000000000     
 -0.12099999999999994          0.0000000000000000     
 -0.11799999999999994          0.0000000000000000     
 -0.11499999999999994          0.0000000000000000     
 -0.11199999999999993          0.0000000000000000     
 -0.10899999999999999          0.0000000000000000     
 -0.10599999999999998          0.0000000000000000     
 -0.10299999999999998          0.0000000000000000     
  -9.9999999999999978E-002     0.0000000000000000     
  -9.6999999999999975E-002     0.0000000000000000     
  -9.3999999999999972E-002     0.0000000000000000     
  -9.0999999999999970E-002     0.0000000000000000     
  -8.7999999999999967E-002     0.0000000000000000     
  -8.4999999999999964E-002     0.0000000000000000     
  -8.1999999999999962E-002     0.0000000000000000     
  -7.8999999999999959E-002     0.0000000000000000     
  -7.5999999999999956E-002     0.0000000000000000     
  -7.2999999999999954E-002     0.0000000000000000     
  -6.9999999999999951E-002     0.0000000000000000     
  -6.6999999999999948E-002     0.0000000000000000     
  -6.3999999999999946E-002     0.0000000000000000     
  -6.0999999999999943E-002     0.0000000000000000     
  -5.7999999999999940E-002     0.0000000000000000     
  -5.4999999999999938E-002     0.0000000000000000     
  -5.1999999999999935E-002     0.0000000000000000     
  -4.8999999999999932E-002     0.0000000000000000     
  -4.5999999999999985E-002     0.0000000000000000     
  -4.2999999999999983E-002     0.0000000000000000     
  -3.9999999999999980E-002     0.0000000000000000     
  -3.6999999999999977E-002     0.0000000000000000     
  -3.3999999999999975E-002     0.0000000000000000     
  -3.0999999999999972E-002     0.0000000000000000     
  -2.7999999999999969E-002     0.0000000000000000     
  -2.4999999999999967E-002     0.0000000000000000     
  -2.1999999999999964E-002     0.0000000000000000     
  -1.8999999999999961E-002     0.0000000000000000     
  -1.5999999999999959E-002     0.0000000000000000     
  -1.2999999999999956E-002     0.0000000000000000     
  -9.9999999999999534E-003     0.0000000000000000     
  -6.9999999999999507E-003     0.0000000000000000     
  -3.9999999999999480E-003     0.0000000000000000     
  -9.9999999999994538E-004     0.0000000000000000     
   2.0000000000000573E-003     0.0000000000000000     
   5.0000000000000600E-003     0.0000000000000000     
   8.0000000000000626E-003     0.0000000000000000     
   1.1000000000000065E-002     0.0000000000000000     
   1.4000000000000068E-002     0.0000000000000000     
   1.7000000000000015E-002     0.0000000000000000     
   2.0000000000000018E-002     0.0000000000000000     
   2.3000000000000020E-002     0.0000000000000000     
   2.6000000000000023E-002     0.0000000000000000     
   2.9000000000000026E-002     0.0000000000000000     
   3.2000000000000028E-002     0.0000000000000000     
   3.5000000000000031E-002     0.0000000000000000     
   3.8000000000000034E-002     0.0000000000000000     
   4.1000000000000036E-002     0.0000000000000000     
   4.4000000000000039E-002     0.0000000000000000     
   4.7000000000000042E-002     0.0000000000000000     
   5.0000000000000044E-002     0.0000000000000000     
   5.3000000000000047E-002     0.0000000000000000     
   5.6000000000000050E-002     0.0000000000000000     
   5.9000000000000052E-002     0.0000000000000000     
   6.2000000000000055E-002     0.0000000000000000     
   6.5000000000000058E-002     0.0000000000000000     
   6.8000000000000060E-002     0.0000000000000000     
   7.1000000000000063E-002     0.0000000000000000     
   7.4000000000000066E-002     0.0000000000000000     
   7.7000000000000068E-002     0.0000000000000000     
   8.0000000000000016E-002     0.0000000000000000     
   8.3000000000000018E-002     0.0000000000000000     
   8.6000000000000021E-002     0.0000000000000000     
   8.9000000000000024E-002     0.0000000000000000     
   9.2000000000000026E-002     0.0000000000000000     
   9.5000000000000029E-002     0.0000000000000000     
   9.8000000000000032E-002     0.0000000000000000     
  0.10100000000000003          0.0000000000000000     
  0.10400000000000004          0.0000000000000000     
  0.10700000000000004          0.0000000000000000     
  0.11000000000000004          0.0000000000000000     
  0.11300000000000004          0.0000000000000000     
  0.11600000000000005          0.0000000000000000     
  0.11900000000000005          0.0000000000000000     
  0.12200000000000005          0.0000000000000000     
  0.12500000000000006          0.0000000000000000     
  0.12800000000000006          0.0000000000000000     
  0.13100000000000006          0.0000000000000000     
  0.13400000000000006          0.0000000000000000     
  0.13700000000000007          0.0000000000000000     
  0.14000000000000007          0.0000000000000000     
  0.14300000000000007          0.0000000000000000     
  0.14600000000000007          0.0000000000000000     
  0.14900000000000008          0.0000000000000000     
  0.15200000000000008          0.0000000000000000     
  0.15500000000000008          0.0000000000000000     
  0.15800000000000008          0.0000000000000000     
  0.16100000000000009          0.0000000000000000     
  0.16400000000000009          0.0000000000000000     
  0.16700000000000009          0.0000000000000000     
  0.17000000000000010          0.0000000000000000     
  0.17300000000000010          0.0000000000000000     
  0.17600000000000010          0.0000000000000000     
  0.17899999999999999          0.0000000000000000     
  0.18200000000000000          0.0000000000000000     
  0.18500000000000000          0.0000000000000000     
  0.18800000000000000          0.0000000000000000     
  0.19100000000000000          0.0000000000000000     
  0.19400000000000001          0.0000000000000000     
  0.19700000000000001          0.0000000000000000     
  0.20000000000000001          0.0000000000000000     
  0.20300000000000001          0.0000000000000000     
  0.20600000000000002          0.0000000000000000     
  0.20900000000000002          0.0000000000000000     
  0.21200000000000002          0.0000000000000000     
  0.21500000000000002          0.0000000000000000     
  0.21800000000000003          0.0000000000000000     
  0.22100000000000003         -2.5964988799496677E-042
  0.22400000000000003          8.7956188106468342E-042
  0.22700000000000004          1.3550772138811722E-041
  0.23000000000000004         -2.9684378746011107E-041
  0.23300000000000004         -1.6606493667529452E-040
  0.23600000000000004          1.1122826812345971E-043
  0.23900000000000005          1.8454824326748798E-040
  0.24200000000000005          4.3026973888721756E-041
  0.24500000000000005          2.3038366562756055E-040
  0.24800000000000005          6.0169799328621956E-040
  0.25100000000000006          1.0979135253238397E-039
  0.25400000000000006         -2.5595256242323670E-039
  0.25700000000000006         -1.6101275948839418E-038
  0.26000000000000006         -1.7503642881323814E-038
  0.26300000000000007          1.1406015233705371E-039
  0.26600000000000007          2.0399566707567639E-038
  0.26900000000000007          5.8021056853147617E-038
  0.27200000000000008          8.7247568824765717E-038
  0.27500000000000008          7.8413980626134108E-038
  0.27800000000000008          4.2469562018599649E-039
  0.28100000000000008         -1.4287642642974226E-037
  0.28400000000000009         -3.2175058624365028E-037
  0.28700000000000009         -4.3660215195747927E-037
  0.29000000000000009         -3.5237110510490316E-037
  0.29300000000000009          4.7040295191592879E-038
  0.29600000000000010          7.6735530626494457E-037
  0.29900000000000010          1.6108005111741213E-036
  0.30200000000000010          2.1381081775326111E-036
  0.30499999999999999          1.7506165888258342E-036
  0.30800000000000000         -6.7560135976211381E-038
  0.31100000000000000         -3.3730750703911677E-036
  0.31400000000000000         -7.3751197203676130E-036
  0.31700000000000000         -1.0251146327700011E-035
  0.32000000000000001         -9.4179651321484455E-036
  0.32300000000000001         -2.4302672632135053E-036
  0.32600000000000001          1.1547234690323986E-035
  0.32900000000000001          3.0094475291270327E-035
  0.33200000000000002          4.6479627067361399E-035
  0.33500000000000002          5.0153734854961209E-035
  0.33800000000000002          2.9591821076420738E-035
  0.34100000000000003         -2.2399219934497327E-035
  0.34400000000000003         -1.0194864017194197E-034
  0.34700000000000003         -1.8838568926363301E-034
  0.35000000000000003         -2.4297758721212538E-034
  0.35300000000000004         -2.1565917896264110E-034
  0.35600000000000004         -6.1671561183199204E-035
  0.35900000000000004          2.3344147984343947E-034
  0.36200000000000004          6.2686369522814669E-034
  0.36500000000000005          1.0007579827046022E-033
  0.36800000000000005          1.1675429937087097E-033
  0.37100000000000005          9.1000893581542505E-034
  0.37400000000000005          5.9761142832724416E-035
  0.37700000000000006         -1.3971749053032222E-033
  0.38000000000000006         -3.2169605450406918E-033
  0.38300000000000006         -4.8422867921799770E-033
  0.38600000000000007         -5.4461101743930214E-033
  0.38900000000000007         -4.1147013882906005E-033
  0.39200000000000007         -1.7537624826117642E-034
  0.39500000000000007          6.3814110004500915E-033
  0.39800000000000008          1.4501717783618159E-032
  0.40100000000000008          2.1861198057174655E-032
  0.40400000000000008          2.5041534934426906E-032
  0.40700000000000008          2.0234812634740761E-032
  0.41000000000000009          4.4961474805618187E-033
  0.41300000000000009         -2.2632165025499547E-032
  0.41600000000000009         -5.7534144329696610E-032
  0.41900000000000009         -9.1582233677973578E-032
  0.42200000000000010         -1.1153895916034920E-031
  0.42500000000000010         -1.0186126210193968E-031
  0.42800000000000010         -4.9076004806232350E-032
  0.43100000000000011          5.2254474402366296E-032
  0.43400000000000000          1.9325932066533479E-031
  0.43700000000000000          3.4621061039520712E-031
  0.44000000000000000          4.6414714359650186E-031
  0.44300000000000000          4.8690077243611867E-031
  0.44600000000000001          3.5468984421691296E-031
  0.44900000000000001          2.8474592495207893E-032
  0.45200000000000001         -4.8634487924971700E-031
  0.45500000000000002         -1.1190398299598359E-030
  0.45800000000000002         -1.7236264289066522E-030
  0.46100000000000002         -2.0883582498712353E-030
  0.46400000000000002         -1.9708654684985268E-030
  0.46700000000000003         -1.1599757939303055E-030
  0.47000000000000003          4.4261224676386489E-031
  0.47300000000000003          2.7368510775295911E-030
  0.47600000000000003          5.3595282226336248E-030
  0.47900000000000004          7.6692744984668309E-030
  0.48200000000000004          8.8085376013261235E-030
  0.48500000000000004          7.8587379190461906E-030
  0.48800000000000004          4.0844191322161458E-030
  0.49100000000000005         -2.7655830864471640E-030
  0.49400000000000005         -1.2162214310141925E-029
  0.49700000000000005         -2.2592883401170385E-029
  0.50000000000000000         -3.1548755571696367E-029
  0.50300000000000011         -3.5788231715571411E-029
  0.50600000000000001         -3.1920678467854182E-029
  0.50900000000000012         -1.7284140196404324E-029
  0.51200000000000001          9.0006690978058367E-030
  0.51500000000000012          4.5013832107485159E-029
  0.51800000000000002          8.5346833665889275E-029
  0.52100000000000013          1.2105914825515080E-028
  0.52400000000000002          1.4055511372817781E-028
  0.52700000000000014          1.3152200427432229E-028
  0.53000000000000003          8.3849567244975142E-029
  0.53300000000000014         -6.8338784974848444E-030
  0.53600000000000003         -1.3567106894803360E-028
  0.53900000000000015         -2.8603572291852957E-028
  0.54200000000000004         -4.2895149496905545E-028
  0.54500000000000015         -5.2536937584004994E-028
  0.54800000000000004         -5.3183201930789621E-028
  0.55100000000000016         -4.0942007523465164E-028
  0.55400000000000005         -1.3503609640842697E-028
  0.55700000000000016          2.8682322490131749E-028
  0.56000000000000005          8.1444242712083248E-028
  0.56299999999999994          1.3644836899448363E-027
  0.56600000000000006          1.8157439416314366E-027
  0.56899999999999995          2.0231466234958762E-027
  0.57200000000000006          1.8424036189415762E-027
  0.57499999999999996          1.1634901149242025E-027
  0.57800000000000007         -5.1572691947039497E-029
  0.58099999999999996         -1.7336356104107292E-027
  0.58400000000000007         -3.6828365743702930E-027
  0.58699999999999997         -5.5656985558198332E-027
  0.59000000000000008         -6.9406358021078798E-027
  0.59299999999999997         -7.3159504328147284E-027
  0.59600000000000009         -6.2387084566164574E-027
  0.59899999999999998         -3.4057560475184990E-027
  0.60200000000000009          1.2193894070887125E-027
  0.60500000000000020          7.3065136574968276E-027
  0.60800000000000010          1.4101960691682211E-026
  0.61100000000000021          2.0440962600524138E-026
  0.61400000000000010          2.4848666133221918E-026
  0.61700000000000021          2.5737588315219255E-026
  0.62000000000000011          2.1692007853499841E-026
  0.62300000000000022          1.1809563929154308E-026
  0.62600000000000011         -3.9499978843039754E-027
  0.62900000000000000         -2.4475527621128373E-026
  0.63200000000000012         -4.7349353227937092E-026
  0.63500000000000001         -6.8897214119059519E-026
  0.63800000000000012         -8.4495591526326405E-026
  0.64100000000000001         -8.9154918715950017E-026
  0.64400000000000013         -7.8350673747723308E-026
  0.64700000000000002         -4.9019759400328707E-026
  0.65000000000000013         -5.8566016343875627E-028
  0.65300000000000002          6.4167587538076321E-026
  0.65600000000000014          1.3857629944002797E-025
  0.65900000000000003          2.1212785295497524E-025
  0.66200000000000014          2.7119221435217620E-025
  0.66500000000000004          3.0052267690979747E-025
  0.66800000000000015          2.8547678437780156E-025
  0.67100000000000004          2.1477025589363408E-025
  0.67400000000000015          8.3435463367387666E-026
  0.67700000000000005         -1.0446782612482072E-025
  0.68000000000000016         -3.3391705193545031E-025
  0.68300000000000005         -5.7830472592336713E-025
  0.68600000000000017         -8.0058649798358906E-025
  0.68900000000000006         -9.5648575324484080E-025
  0.69200000000000017         -9.9977590491209046E-025
  0.69500000000000006         -8.8933271967609241E-025
  0.69800000000000018         -5.9728568112794711E-025
  0.70100000000000007         -1.1725379110371086E-025
  0.70400000000000018          5.2861922990997570E-025
  0.70700000000000007          1.2852473273959788E-024
  0.71000000000000019          2.0641715855230561E-024
  0.71300000000000008          2.7482094378527816E-024
  0.71600000000000019          3.2017781661563149E-024
  0.71900000000000008          3.2867791870155167E-024
  0.72200000000000020          2.8830654056857825E-024
  0.72500000000000009          1.9115990454405953E-024
  0.72800000000000020          3.5754408234488651E-025
  0.73100000000000009         -1.7101194208323298E-024
  0.73400000000000021         -4.1262118245476738E-024
  0.73700000000000010         -6.6278253481137712E-024
  0.74000000000000021         -8.8665937068907027E-024
  0.74300000000000010         -1.0436511081735204E-023
  0.74600000000000022         -1.0917226994632056E-023
  0.74900000000000011         -9.9306174289673828E-024
  0.75200000000000022         -7.2060639725134244E-024
  0.75500000000000012         -2.6475011308820389E-024
  0.75800000000000001          3.6065796631388565E-024
  0.76100000000000012          1.1140190814244599E-023
  0.76400000000000001          1.9244131609402398E-023
  0.76700000000000013          2.6936474210672148E-023
  0.77000000000000002          3.3025561965181086E-023
  0.77300000000000013          3.6217711045294286E-023
  0.77600000000000002          3.5266473955411553E-023
  0.77900000000000014          2.9154020533657278E-023
  0.78200000000000003          1.7288646236585941E-023
  0.78500000000000014         -3.0354816893515668E-025
  0.78800000000000003         -2.2819415020161938E-023
  0.79100000000000015         -4.8580879171591406E-023
  0.79400000000000004         -7.5026633651737920E-023
  0.79700000000000015         -9.8816959419488276E-023
  0.80000000000000004         -1.1606642234979020E-022
  0.80300000000000016         -1.2270687632543843E-022
  0.80600000000000005         -1.1496684108207572E-022
  0.80900000000000016         -8.9935634385540845E-023
  0.81200000000000006         -4.6161753366005260E-023
  0.81500000000000017          1.5781184403996187E-023
  0.81800000000000006          9.2840295716229106E-023
  0.82100000000000017          1.7922566466934207E-022
  0.82400000000000007          2.6643015608908932E-022
  0.82700000000000018          3.4359319524352761E-022
  0.83000000000000007          3.9824888562331457E-022
  0.83300000000000018          4.1746234354887656E-022
  0.83600000000000008          3.8931033357019680E-022
  0.83900000000000019          3.0461166057333051E-022
  0.84200000000000008          1.5875792705736306E-022
  0.84500000000000020         -4.6550721503700771E-023
  0.84800000000000009         -3.0189768799980846E-022
  0.85100000000000020         -5.8931935879677202E-022
  0.85400000000000009         -8.8229089701630785E-022
  0.85700000000000021         -1.1467296489825752E-021
  0.86000000000000010         -1.3431482333659581E-021
  0.86300000000000021         -1.4299783175358666E-021
  0.86600000000000010         -1.3679666336221645E-021
  0.86900000000000022         -1.1253846537152172E-021
  0.87200000000000011         -6.8364855048028717E-022
  0.87500000000000022         -4.2795267492256663E-023
  0.87800000000000011          7.7384516128694387E-022
  0.88100000000000001          1.7165146949156705E-021
  0.88400000000000012          2.7081497162326395E-021
  0.88700000000000001          3.6464072837971759E-021
  0.89000000000000012          4.4090610061343984E-021
  0.89300000000000002          4.8629513229869247E-021
  0.89600000000000013          4.8763598881862624E-021
  0.89900000000000002          4.3342110859699196E-021
  0.90200000000000014          3.1551166419545071E-021
  0.90500000000000003          1.3087904656478104E-021
  0.90800000000000014         -1.1679844446443307E-021
  0.91100000000000003         -4.1589247123250364E-021
  0.91400000000000015         -7.4615556035789696E-021
  0.91700000000000004         -1.0788331190961762E-020
  0.92000000000000015         -1.3777280343417812E-020
  0.92300000000000004         -1.6013269900448104E-020
  0.92600000000000016         -1.7060104386316845E-020
  0.92900000000000005         -1.6502541191807036E-020
  0.93200000000000016         -1.3996090066158562E-020
  0.93500000000000005         -9.3211098873875666E-021
  0.93800000000000017         -2.4365093030190928E-021
  0.94100000000000006          6.4727144482715154E-021
  0.94400000000000017          1.6960492603001564E-020
  0.94700000000000006          2.8303812095228958E-020
  0.95000000000000018          3.9512078555772992E-020
  0.95300000000000007          4.9366526286431454E-020
  0.95600000000000018          5.6492509279585208E-020
  0.95900000000000007          5.9464937156929888E-020
  0.96200000000000019          5.6943540329186340E-020
  0.96500000000000008          4.7831134541279750E-020
  0.96800000000000019          3.1444015949156982E-020
  0.97100000000000009          7.6800162795669356E-021
  0.97400000000000020         -2.2833201088990605E-020
  0.97700000000000009         -5.8628991893899537E-020
  0.98000000000000020         -9.7351676689492550E-020
  0.98300000000000010         -1.3578367243294803E-019
  0.98600000000000021         -1.6996517102286280E-019
  0.98900000000000010         -1.9541466958630066E-019
  0.99200000000000021         -2.0745217289776447E-019
  0.99500000000000011         -2.0161609777373988E-019
  0.99800000000000022         -1.7415449863173200E-019
   1.0010000000000001         -1.2255880838573939E-019
   1.0040000000000002         -4.6099212851113167E-020
   1.0070000000000001          5.3691151106043892E-020
   1.0100000000000000          1.7264022648721246E-019
   1.0130000000000001          3.0372963225401591E-019
   1.0160000000000000          4.3711341205491927E-019
   1.0190000000000001          5.6041093163043891E-019
   1.0220000000000000          6.5930744038278159E-019
   1.0250000000000001          7.1847346405286349E-019
   1.0280000000000000          7.2278615913966239E-019
   1.0310000000000001          6.5880711914376174E-019
   1.0340000000000000          5.1643217357579641E-019
   1.0370000000000001          2.9059938942745036E-019
   1.0400000000000000         -1.7089280464727305E-020
   1.0430000000000001         -3.9700350904007318E-019
   1.0460000000000000         -8.3055816685308828E-019
   1.0490000000000002         -1.2899027073568971E-018
   1.0520000000000000         -1.7383931603026091E-018
   1.0550000000000002         -2.1319682247148294E-018
   1.0580000000000001         -2.4215077580722929E-018
   1.0610000000000002         -2.5561649678836264E-018
   1.0640000000000001         -2.4875922583146564E-018
   1.0670000000000002         -2.1748651079967651E-018
   1.0700000000000001         -1.5898238039881928E-018
   1.0730000000000002         -7.2244376209248322E-019
   1.0760000000000001          4.1423618170464057E-019
   1.0790000000000002          1.7801549541653121E-018
   1.0820000000000001          3.3057896233442996E-018
   1.0850000000000002          4.8917817892592404E-018
   1.0880000000000001          6.4110996110424992E-018
   1.0910000000000002          7.7140724553277653E-018
   1.0940000000000001          8.6364890579900921E-018
   1.0970000000000002          9.0106937951854108E-018
