 -0.39999999999999997          0.0000000000000000     
 -0.39699999999999996          0.0000000000000000     
 -0.39399999999999996          0.0000000000000000     
 -0.39099999999999996          0.0000000000000000     
 -0.38799999999999996          0.0000000000000000     
 -0.38499999999999995          0.0000000000000000     
 -0.38199999999999995          0.0000000000000000     
 -0.37899999999999995          0.0000000000000000     
 -0.37599999999999995          0.0000000000000000     
 -0.37299999999999994          0.0000000000000000     
 -0.37000000000000000          0.0000000000000000     
 -0.36699999999999999          0.0000000000000000     
 -0.36399999999999999          0.0000000000000000     
 -0.36099999999999999          0.0000000000000000     
 -0.35799999999999998          0.0000000000000000     
 -0.35499999999999998          0.0000000000000000     
 -0.35199999999999998          0.0000000000000000     
 -0.34899999999999998          0.0000000000000000     
 -0.34599999999999997          0.0000000000000000     
 -0.34299999999999997          0.0000000000000000     
 -0.33999999999999997          0.0000000000000000     
 -0.33699999999999997          0.0000000000000000     
 -0.33399999999999996          0.0000000000000000     
 -0.33099999999999996          0.0000000000000000     
 -0.32799999999999996          0.0000000000000000     
 -0.32499999999999996          0.0000000000000000     
 -0.32199999999999995          0.0000000000000000     
 -0.31899999999999995          0.0000000000000000     
 -0.31599999999999995          0.0000000000000000     
 -0.31299999999999994          9.3141288031440533E-041
 -0.30999999999999994         -5.6356319018086859E-040
 -0.30699999999999994          1.4546877482135154E-039
 -0.30399999999999994          2.5453378090927099E-039
 -0.30099999999999993         -2.4761349823209163E-038
 -0.29799999999999993          1.9069634582633860E-038
 -0.29499999999999998          2.0228544639856466E-037
 -0.29199999999999998         -6.3864601664337999E-037
 -0.28899999999999998         -3.7744617525110348E-037
 -0.28599999999999998          5.9665550063783420E-036
 -0.28299999999999997         -7.7156382389758004E-036
 -0.27999999999999997         -3.1426518700720906E-035
 -0.27699999999999997          1.0065922678861234E-034
 -0.27399999999999997          7.4551223023334742E-035
 -0.27099999999999996         -7.3563328751424154E-034
 -0.26799999999999996          3.6580524336604855E-034
 -0.26499999999999996          3.9494164035343113E-033
 -0.26199999999999996         -5.7023920786630524E-033
 -0.25899999999999995         -1.6658226148907946E-032
 -0.25599999999999995          4.2277956714416246E-032
 -0.25300000000000000          5.5157720318982582E-032
 -0.24999999999999997         -2.3816193829665511E-031
 -0.24699999999999997         -1.2998578990571418E-031
 -0.24399999999999997          1.1364076545902027E-030
 -0.24099999999999996          9.6351377751026921E-032
 -0.23799999999999996         -4.8225339593165602E-030
 -0.23499999999999996          1.0724817939146090E-030
 -0.23199999999999996          1.8728686114642729E-029
 -0.22899999999999995         -7.9119244289572484E-030
 -0.22599999999999995         -6.7810960867892684E-029
 -0.22299999999999998          3.5901663421888047E-029
 -0.21999999999999997          2.3153841332893634E-028
 -0.21699999999999997         -1.2657292304705900E-028
 -0.21399999999999997         -7.4907904413173159E-028
 -0.21099999999999997          3.5746101892342037E-028
 -0.20799999999999996          2.2909511108969169E-027
 -0.20499999999999996         -7.5169159208797840E-028
 -0.20199999999999996         -6.5591154421052507E-027
 -0.19899999999999995          7.1332501442610210E-028
 -0.19599999999999995          1.7259424568854741E-026
 -0.19299999999999995          3.0389405867633505E-027
 -0.18999999999999997         -4.0457140587164574E-026
 -0.18699999999999997         -2.1820301539504405E-026
 -0.18399999999999997          7.9628258114819541E-026
 -0.18099999999999997          8.3524552358390100E-026
 -0.17799999999999996         -1.1266104111806465E-025
 -0.17499999999999996         -2.3031922413557159E-025
 -0.17199999999999996          3.2416255913990798E-026
 -0.16899999999999996          4.4776958936945861E-025
 -0.16599999999999995          4.3023983527484126E-025
 -0.16299999999999995         -3.9764856002543191E-025
 -0.15999999999999998         -1.5961442352004508E-024
 -0.15699999999999997         -1.1231531369036170E-024
 -0.15399999999999997          2.9106004645612982E-024
 -0.15099999999999997          6.3928073088154026E-024
 -0.14799999999999996         -3.5702719829520010E-025
 -0.14499999999999996         -1.5987119603232883E-023
 -0.14199999999999996         -1.6421776508303705E-023
 -0.13899999999999996          1.8092819570100657E-023
 -0.13599999999999995          5.7166308116799141E-023
 -0.13299999999999995          2.8587407763179872E-023
 -0.12999999999999995         -9.0903322580980860E-023
 -0.12699999999999995         -1.8192964804129988E-022
 -0.12399999999999994         -3.3667754789949737E-023
 -0.12099999999999994          3.7426987464809400E-022
 -0.11799999999999994          5.7995553291720296E-022
 -0.11499999999999994         -8.2989286745498830E-023
 -0.11199999999999993         -1.4313933522333884E-021
 -0.10899999999999999         -1.7417144854264626E-021
 -0.10599999999999998          8.2027078438334421E-022
 -0.10299999999999998          4.9785289213358854E-021
  -9.9999999999999978E-002     5.1398215828298278E-021
  -9.6999999999999975E-002    -3.6691177622018443E-021
  -9.3999999999999972E-002    -1.6522774092841658E-020
  -9.0999999999999970E-002    -1.5797795810994444E-020
  -8.7999999999999967E-002     1.3147966379207242E-020
  -8.4999999999999964E-002     5.3592672713784055E-020
  -8.1999999999999962E-002     5.0354313908829442E-020
  -7.8999999999999959E-002    -4.0804001477416566E-020
  -7.5999999999999956E-002    -1.6856869561678354E-019
  -7.2999999999999954E-002    -1.6619958451902896E-019
  -6.9999999999999951E-002     1.0598145607177611E-019
  -6.6999999999999948E-002     5.1245317668982850E-019
  -6.3999999999999946E-002     5.6320318883612430E-019
  -6.0999999999999943E-002    -2.0402109070842274E-019
  -5.7999999999999940E-002    -1.4912746651301982E-018
  -5.4999999999999938E-002    -1.9055073262996555E-018
  -5.1999999999999935E-002     8.7313261598738882E-020
  -4.8999999999999932E-002     4.0548779829208585E-018
  -4.5999999999999985E-002     6.2641038926839880E-018
  -4.2999999999999983E-002     1.7516977635595726E-018
  -3.9999999999999980E-002    -9.8862417974996584E-018
  -3.6999999999999977E-002    -1.9511611409632335E-017
  -3.3999999999999975E-002    -1.1831454502689934E-017
  -3.0999999999999972E-002     1.9711277170375918E-017
  -2.7999999999999969E-002     5.5924345432745697E-017
  -2.4999999999999967E-002     5.3213351571107674E-017
  -2.1999999999999964E-002    -2.2112594548617770E-017
  -1.8999999999999961E-002    -1.4146088894888206E-016
  -1.5999999999999959E-002    -1.9383944866015393E-016
  -1.2999999999999956E-002    -5.0871377269784928E-017
  -9.9999999999999534E-003     2.9012024850787938E-016
  -6.9999999999999507E-003     5.9214622188185634E-016
  -3.9999999999999480E-003     4.5420802556313309E-016
  -9.9999999999994538E-004    -3.5520215364843228E-016
   2.0000000000000573E-003    -1.4820754818481106E-015
   5.0000000000000600E-003    -1.8972354940647562E-015
   8.0000000000000626E-003    -4.9757627392773881E-016
   1.1000000000000065E-002     2.7175908229990779E-015
   1.4000000000000068E-002     5.7289706576214932E-015
   1.7000000000000015E-002     5.0360154197448329E-015
   2.0000000000000018E-002    -1.7818556716366045E-015
   2.3000000000000020E-002    -1.2605528933143555E-014
   2.6000000000000023E-002    -1.9321833763656744E-014
   2.9000000000000026E-002    -1.1415171952411939E-014
   3.2000000000000028E-002     1.5167003021656810E-014
   3.5000000000000031E-002     4.8737462262459620E-014
   3.8000000000000034E-002     6.1070840959491960E-014
   4.1000000000000036E-002     2.2300725237967833E-014
   4.4000000000000039E-002    -7.1087890202878255E-014
   4.7000000000000042E-002    -1.7221105355403063E-013
   5.0000000000000044E-002    -1.8951315185784447E-013
   5.3000000000000047E-002    -3.9064590631216135E-014
   5.6000000000000050E-002     2.7083894752152998E-013
   5.9000000000000052E-002     5.7711282480344844E-013
   6.2000000000000055E-002     5.9458838602937200E-013
   6.5000000000000058E-002     8.3214603249883358E-014
   6.8000000000000060E-002    -9.0372054764298239E-013
   7.1000000000000063E-002    -1.8526717614855614E-012
   7.4000000000000066E-002    -1.9065419354572250E-012
   7.7000000000000068E-002    -3.5831517777775805E-013
   8.0000000000000016E-002     2.6453441145688107E-012
   8.3000000000000018E-002     5.6427075638072286E-012
   8.6000000000000021E-002     6.1753788469743103E-012
   8.9000000000000024E-002     2.1178779738187638E-012
   9.2000000000000026E-002    -6.4259191912911199E-012
   9.5000000000000029E-002    -1.5813139891683637E-011
   9.8000000000000032E-002    -1.9488569806335674E-011
  0.10100000000000003         -1.1153730987641203E-011
  0.10400000000000004          1.0503847119682175E-011
  0.10700000000000004          3.8145376972383049E-011
  0.11000000000000004          5.6301302170221063E-011
  0.11300000000000004          4.7681568390770039E-011
  0.11600000000000005          3.5920281724849745E-012
  0.11900000000000005         -6.6664915829704721E-011
  0.12200000000000005         -1.3379456915848551E-010
  0.12500000000000006         -1.5780595351077512E-010
  0.12800000000000006         -1.0669811050052339E-010
  0.13100000000000006          2.3590444668827706E-011
  0.13400000000000006          1.9887069561952550E-010
  0.13700000000000007          3.5372337961251392E-010
  0.14000000000000007          4.1517446452670138E-010
  0.14300000000000007          3.3310977873187831E-010
  0.14600000000000007          1.0288188380305136E-010
  0.14900000000000008         -2.3121764062763431E-010
  0.15200000000000008         -5.9330184442681663E-010
  0.15500000000000008         -9.0517129330754645E-010
  0.15800000000000008         -1.1135039365963459E-009
  0.16100000000000009         -1.2039752953784135E-009
  0.16400000000000009         -1.2000590639027852E-009
  0.16700000000000009         -1.1523610504155467E-009
  0.17000000000000010         -1.1265093084419645E-009
  0.17300000000000010         -1.1932997185627127E-009
  0.17600000000000010         -1.4187195779363569E-009
  0.17899999999999999         -1.8497292979010124E-009
  0.18200000000000000         -2.4968608293556294E-009
  0.18500000000000000         -3.3225603494488891E-009
  0.18800000000000000         -4.2475669198562004E-009
  0.19100000000000000         -5.1807959081573017E-009
  0.19400000000000001         -6.0640281187600597E-009
  0.19700000000000001         -6.9097379170798010E-009
  0.20000000000000001         -7.8097384824407286E-009
  0.20300000000000001         -8.9061861336121668E-009
  0.20600000000000002         -1.0338404496261651E-008
  0.20900000000000002         -1.2194443363892353E-008
  0.21200000000000002         -1.4494385852906033E-008
  0.21500000000000002         -1.7214118066472256E-008
  0.21800000000000003         -2.0333646058060431E-008
  0.22100000000000003         -2.3880148204193472E-008
  0.22400000000000003         -2.7940707548998179E-008
  0.22700000000000004         -3.2640382380086245E-008
  0.23000000000000004         -3.8102520517938571E-008
  0.23300000000000004         -4.4418247276628219E-008
  0.23600000000000004         -5.1643650628482370E-008
  0.23900000000000005         -5.9824367599632624E-008
  0.24200000000000005         -6.9032733369037476E-008
  0.24500000000000005         -7.9396123284169973E-008
  0.24800000000000005         -9.1102904235312199E-008
  0.25100000000000006         -1.0438773454407442E-007
  0.25400000000000006         -1.1950593482250272E-007
  0.25700000000000006         -1.3670645558780041E-007
  0.26000000000000006         -1.5621709576949127E-007
  0.26300000000000007         -1.7824127352758646E-007
  0.26600000000000007         -2.0296977880268634E-007
  0.26900000000000007         -2.3060090483394225E-007
  0.27200000000000008         -2.6136121198462085E-007
  0.27500000000000008         -2.9552213452499462E-007
  0.27800000000000008         -3.3340141475097857E-007
  0.28100000000000008         -3.7535070534563052E-007
  0.28400000000000009         -4.2173439073912724E-007
  0.28700000000000009         -4.7291025377818805E-007
  0.29000000000000009         -5.2922026190551429E-007
  0.29300000000000009         -5.9099944358830486E-007
  0.29600000000000010         -6.5857860998382680E-007
  0.29900000000000010         -7.3229816936174097E-007
  0.30200000000000010         -8.1250518445818724E-007
  0.30499999999999999         -8.9954212624437181E-007
  0.30800000000000000         -9.9374060122802647E-007
  0.31100000000000000         -1.0954122459117861E-006
  0.31400000000000000         -1.2048449468456890E-006
  0.31700000000000000         -1.3222764032626915E-006
  0.32000000000000001         -1.4478977374007352E-006
  0.32300000000000001         -1.5818217069811409E-006
  0.32600000000000001         -1.7240920732973478E-006
  0.32900000000000001         -1.8746832632459906E-006
  0.33200000000000002         -2.0334948724855855E-006
  0.33500000000000002         -2.2003605989641532E-006
  0.33800000000000002         -2.3750407725003917E-006
  0.34100000000000003         -2.5571669064585191E-006
  0.34400000000000003         -2.7462555711273257E-006
  0.34700000000000003         -2.9417103071744104E-006
  0.35000000000000003         -3.1427930315629064E-006
  0.35300000000000004         -3.3486222574321687E-006
  0.35600000000000004         -3.5581773290531635E-006
  0.35900000000000004         -3.7702538402013528E-006
  0.36200000000000004         -3.9834762725126866E-006
  0.36500000000000005         -4.1962663005627993E-006
  0.36800000000000005         -4.4068814191728605E-006
  0.37100000000000005         -4.6134775367453532E-006
  0.37400000000000005         -4.8140412498426462E-006
  0.37700000000000006         -5.0064590082859454E-006
  0.38000000000000006         -5.1884162325945220E-006
  0.38300000000000006         -5.3574354026913161E-006
  0.38600000000000007         -5.5109150333122704E-006
  0.38900000000000007         -5.6462106605173317E-006
  0.39200000000000007         -5.7605202874776924E-006
  0.39500000000000007         -5.8509909633633847E-006
  0.39800000000000008         -5.9146835912897087E-006
  0.40100000000000008         -5.9486966884863343E-006
  0.40400000000000008         -5.9501322146032257E-006
  0.40700000000000008         -5.9161953693120069E-006
  0.41000000000000009         -5.8441816473303326E-006
  0.41300000000000009         -5.7315814780902135E-006
  0.41600000000000009         -5.5759112062480515E-006
  0.41900000000000009         -5.3748855247275949E-006
  0.42200000000000010         -5.1265099150604024E-006
  0.42500000000000010         -4.8289560010845650E-006
  0.42800000000000010         -4.4809151364373727E-006
  0.43100000000000011         -4.0813617144348246E-006
  0.43400000000000000         -3.6296683008159205E-006
  0.43700000000000000         -3.1257923178786105E-006
  0.44000000000000000         -2.5699551024779823E-006
  0.44300000000000000         -1.9629183194991205E-006
  0.44600000000000001         -1.3060980323637826E-006
  0.44900000000000001         -6.0138458914510635E-007
  0.45200000000000001          1.4856041612894152E-007
  0.45500000000000002          9.4079450729131161E-007
  0.45800000000000002          1.7716188288422898E-006
  0.46100000000000002          2.6369775050335666E-006
  0.46400000000000002          3.5321990563903498E-006
  0.46700000000000003          4.4520705187047950E-006
  0.47000000000000003          5.3906343906132486E-006
  0.47300000000000003          6.3416100142705564E-006
  0.47600000000000003          7.2985065842196253E-006
  0.47900000000000004          8.2541019215147334E-006
  0.48200000000000004          9.2012647977887787E-006
  0.48500000000000004          1.0132400798427467E-005
  0.48800000000000004          1.1039594356472178E-005
  0.49100000000000005          1.1914933668311889E-005
  0.49400000000000005          1.2750645945904941E-005
  0.49700000000000005          1.3538835573607933E-005
  0.50000000000000000          1.4272068281766210E-005
  0.50300000000000011          1.4943018650115849E-005
  0.50600000000000001          1.5544616365394303E-005
  0.50900000000000012          1.6070119144712644E-005
  0.51200000000000001          1.6513241967635879E-005
  0.51500000000000012          1.6868342425332970E-005
  0.51800000000000002          1.7130550066339751E-005
  0.52100000000000013          1.7295788511822408E-005
  0.52400000000000002          1.7360787919080353E-005
  0.52700000000000014          1.7323020192295854E-005
  0.53000000000000003          1.7180796320681509E-005
  0.53300000000000014          1.6933240355012005E-005
  0.53600000000000003          1.6580510139714909E-005
  0.53900000000000015          1.6123816430282261E-005
  0.54200000000000004          1.5565340172084553E-005
  0.54500000000000015          1.4908258370157890E-005
  0.54800000000000004          1.4156564976246904E-005
  0.55100000000000016          1.3315168420709405E-005
  0.55400000000000005          1.2389793603404776E-005
  0.55700000000000016          1.1387027215023093E-005
  0.56000000000000005          1.0314020458010157E-005
  0.56299999999999994          9.1787039329306607E-006
  0.56600000000000006          7.9895433608039326E-006
  0.56899999999999995          6.7554055811134571E-006
  0.57200000000000006          5.4855994658850780E-006
  0.57499999999999996          4.1898701509059956E-006
  0.57800000000000007          2.8781008279358034E-006
  0.58099999999999996          1.5602046603261304E-006
  0.58400000000000007          2.4603998689728672E-007
  0.58699999999999997         -1.0548869231550315E-006
  0.59000000000000008         -2.3329915373952968E-006
  0.59299999999999997         -3.5795098219982302E-006
  0.59600000000000009         -4.7854281969660717E-006
  0.59899999999999998         -5.9426308572310190E-006
  0.60200000000000009         -7.0434467579288676E-006
  0.60500000000000020         -8.0807145236856078E-006
  0.60800000000000010         -9.0483063507177111E-006
  0.61100000000000021         -9.9407468485742850E-006
  0.61400000000000010         -1.0753348253685570E-005
  0.61700000000000021         -1.1482274851710140E-005
  0.62000000000000011         -1.2124450347414547E-005
  0.62300000000000022         -1.2677628404415893E-005
  0.62600000000000011         -1.3140625279820130E-005
  0.62900000000000000         -1.3512892239438134E-005
  0.63200000000000012         -1.3794812029766166E-005
  0.63500000000000001         -1.3987494679564787E-005
  0.63800000000000012         -1.4092777513668737E-005
  0.64100000000000001         -1.4113321579695580E-005
  0.64400000000000013         -1.4052206019161844E-005
  0.64700000000000002         -1.3913231835368096E-005
  0.65000000000000013         -1.3700711516996313E-005
  0.65300000000000002         -1.3419391962247234E-005
  0.65600000000000014         -1.3074335363202632E-005
  0.65900000000000003         -1.2671028183603279E-005
  0.66200000000000014         -1.2215183749036751E-005
  0.66500000000000004         -1.1712716400711193E-005
  0.66800000000000015         -1.1169625222964942E-005
  0.67100000000000004         -1.0591912099605142E-005
  0.67400000000000015         -9.9855451201116564E-006
  0.67700000000000005         -9.3563186866361352E-006
  0.68000000000000016         -8.7100119196846468E-006
  0.68300000000000005         -8.0521737119706606E-006
  0.68600000000000017         -7.3881653369791653E-006
  0.68900000000000006         -6.7230113669422180E-006
  0.69200000000000017         -6.0614407765694423E-006
  0.69500000000000006         -5.4078966503784448E-006
  0.69800000000000018         -4.7663785641243093E-006
  0.70100000000000007         -4.1405166720179121E-006
  0.70400000000000018         -3.5336567464531204E-006
  0.70700000000000007         -2.9486658045535312E-006
  0.71000000000000019         -2.3880049308541219E-006
  0.71300000000000008         -1.8538037086598338E-006
  0.71600000000000019         -1.3478351818847916E-006
  0.71900000000000008         -8.7142325305600899E-007
  0.72200000000000020         -4.2554557640877105E-007
  0.72500000000000009         -1.0881572621336823E-008
  0.72800000000000020          3.7223266303801814E-007
  0.73100000000000009          7.2378189193695356E-007
  0.73400000000000021          1.0439602326554424E-006
  0.73700000000000010          1.3331504651842261E-006
  0.74000000000000021          1.5920130400384045E-006
  0.74300000000000010          1.8214541909926958E-006
  0.74600000000000022          2.0225147520016541E-006
  0.74900000000000011          2.1963853758476837E-006
  0.75200000000000022          2.3443956972684424E-006
  0.75500000000000012          2.4678890047565783E-006
  0.75800000000000001          2.5682330190393077E-006
  0.76100000000000012          2.6469097291224048E-006
  0.76400000000000001          2.7054984975289510E-006
  0.76700000000000013          2.7455553709500979E-006
  0.77000000000000002          2.7686267632461247E-006
  0.77300000000000013          2.7762489196262465E-006
  0.77600000000000002          2.7699049240887835E-006
  0.77900000000000014          2.7510128671596185E-006
  0.78200000000000003          2.7209932612839702E-006
  0.78500000000000014          2.6812251908271768E-006
  0.78800000000000003          2.6329658999221755E-006
  0.79100000000000015          2.5773668815053603E-006
  0.79400000000000004          2.5155423353289900E-006
  0.79700000000000015          2.4485494391138487E-006
  0.80000000000000004          2.3773726702289510E-006
  0.80300000000000016          2.3029548085849489E-006
  0.80600000000000005          2.2261368105194460E-006
  0.80900000000000016          2.1476220332350768E-006
  0.81200000000000006          2.0680279383139136E-006
  0.81500000000000017          1.9879934296223651E-006
  0.81800000000000006          1.9081182058712939E-006
  0.82100000000000017          1.8289070423602239E-006
  0.82400000000000007          1.7508048650439148E-006
  0.82700000000000018          1.6741598002684847E-006
  0.83000000000000007          1.5991804996222134E-006
  0.83300000000000018          1.5260667059192647E-006
  0.83600000000000008          1.4550821312909879E-006
  0.83900000000000019          1.3864633055227694E-006
  0.84200000000000008          1.3203234669918016E-006
  0.84500000000000020          1.2567464936811902E-006
  0.84800000000000009          1.1958092326658999E-006
  0.85100000000000020          1.1375235165216510E-006
  0.85400000000000009          1.0819096533329165E-006
  0.85700000000000021          1.0290626129632390E-006
  0.86000000000000010          9.7900058233313156E-007
  0.86300000000000021          9.3156621964121079E-007
  0.86600000000000010          8.8659879158242374E-007
  0.86900000000000022          8.4404929935334741E-007
  0.87200000000000011          8.0387156341692266E-007
  0.87500000000000022          7.6600777151728871E-007
  0.87800000000000011          7.3046608010788237E-007
  0.88100000000000001          6.9719539396922707E-007
  0.88400000000000012          6.6597658980615318E-007
  0.88700000000000001          6.3661877662644651E-007
  0.89000000000000012          6.0909871502680808E-007
  0.89300000000000002          5.8337968719093404E-007
  0.89600000000000013          5.5931034925995107E-007
  0.89900000000000002          5.3676451899334659E-007
  0.90200000000000014          5.1563233087896932E-007
  0.90500000000000003          4.9572260799776852E-007
  0.90800000000000014          4.7691003518671319E-007
  0.91100000000000003          4.5925504181763461E-007
  0.91400000000000015          4.4278018818870713E-007
  0.91700000000000004          4.2731201812062241E-007
  0.92000000000000015          4.1266563013325197E-007
  0.92300000000000004          3.9874755794916641E-007
  0.92600000000000016          3.8544286028895935E-007
  0.92900000000000005          3.7266847037519284E-007
  0.93200000000000016          3.6048885673459261E-007
  0.93500000000000005          3.4893505853945794E-007
  0.93800000000000017          3.3785442755211057E-007
  0.94100000000000006          3.2709759659510658E-007
  0.94400000000000017          3.1666062721069455E-007
  0.94700000000000006          3.0652870237129645E-007
  0.95000000000000018          2.9664231035879607E-007
  0.95300000000000007          2.8702197561001534E-007
  0.95600000000000018          2.7768750857254261E-007
  0.95900000000000007          2.6853977117110808E-007
  0.96200000000000019          2.5950823650174286E-007
  0.96500000000000008          2.5065720888878821E-007
  0.96800000000000019          2.4202899167182831E-007
  0.97100000000000009          2.3357252813022576E-007
  0.97400000000000020          2.2527673621392323E-007
  0.97700000000000009          2.1717569291593125E-007
  0.98000000000000020          2.0924121644987379E-007
  0.98300000000000010          2.0145653438485856E-007
  0.98600000000000021          1.9389305121955285E-007
  0.98900000000000010          1.8658301707289492E-007
  0.99200000000000021          1.7948152829225125E-007
  0.99500000000000011          1.7259339542670380E-007
  0.99800000000000022          1.6598225942903658E-007
   1.0010000000000001          1.5966360527929756E-007
   1.0040000000000002          1.5363043588328932E-007
   1.0070000000000001          1.4790135002378995E-007
   1.0100000000000000          1.4246762198013968E-007
   1.0130000000000001          1.3729718928039153E-007
   1.0160000000000000          1.3241835611579563E-007
   1.0190000000000001          1.2789129312908686E-007
   1.0220000000000000          1.2371929825234519E-007
   1.0250000000000001          1.1987193773910153E-007
   1.0280000000000000          1.1633646395352344E-007
   1.0310000000000001          1.1308682610162036E-007
   1.0340000000000000          1.1011458101823860E-007
   1.0370000000000001          1.0745638888716290E-007
   1.0400000000000000          1.0512484336356401E-007
   1.0430000000000001          1.0306188444263569E-007
   1.0460000000000000          1.0122054208713204E-007
   1.0490000000000002          9.9587804469457723E-008
   1.0520000000000000          9.8137086360253788E-008
   1.0550000000000002          9.6859882671841391E-008
   1.0580000000000001          9.5779300973786322E-008
   1.0610000000000002          9.4858106098158746E-008
   1.0640000000000001          9.4009606132878392E-008
   1.0670000000000002          9.3221052298043685E-008
   1.0700000000000001          9.2523664487612860E-008
   1.0730000000000002          9.1887418830047397E-008
   1.0760000000000001          9.1276070978697699E-008
   1.0790000000000002          9.0691425428415799E-008
   1.0820000000000001          9.0078767813154115E-008
   1.0850000000000002          8.9353254937379057E-008
   1.0880000000000001          8.8548121828828616E-008
   1.0910000000000002          8.7730256406434659E-008
   1.0940000000000001          8.6846676922108627E-008
   1.0970000000000002          8.5826730720671121E-008
