 -0.39999999999999997          0.0000000000000000     
 -0.39699999999999996          0.0000000000000000     
 -0.39399999999999996          0.0000000000000000     
 -0.39099999999999996          0.0000000000000000     
 -0.38799999999999996          0.0000000000000000     
 -0.38499999999999995          0.0000000000000000     
 -0.38199999999999995          0.0000000000000000     
 -0.37899999999999995          0.0000000000000000     
 -0.37599999999999995          0.0000000000000000     
 -0.37299999999999994          0.0000000000000000     
 -0.37000000000000000          0.0000000000000000     
 -0.36699999999999999          0.0000000000000000     
 -0.36399999999999999          0.0000000000000000     
 -0.36099999999999999          0.0000000000000000     
 -0.35799999999999998          0.0000000000000000     
 -0.35499999999999998          0.0000000000000000     
 -0.35199999999999998          0.0000000000000000     
 -0.34899999999999998          0.0000000000000000     
 -0.34599999999999997          0.0000000000000000     
 -0.34299999999999997          0.0000000000000000     
 -0.33999999999999997          0.0000000000000000     
 -0.33699999999999997          0.0000000000000000     
 -0.33399999999999996          0.0000000000000000     
 -0.33099999999999996          0.0000000000000000     
 -0.32799999999999996          0.0000000000000000     
 -0.32499999999999996          0.0000000000000000     
 -0.32199999999999995          0.0000000000000000     
 -0.31899999999999995          0.0000000000000000     
 -0.31599999999999995          0.0000000000000000     
 -0.31299999999999994          0.0000000000000000     
 -0.30999999999999994          0.0000000000000000     
 -0.30699999999999994          0.0000000000000000     
 -0.30399999999999994          0.0000000000000000     
 -0.30099999999999993          0.0000000000000000     
 -0.29799999999999993          0.0000000000000000     
 -0.29499999999999998          0.0000000000000000     
 -0.29199999999999998          0.0000000000000000     
 -0.28899999999999998          0.0000000000000000     
 -0.28599999999999998          0.0000000000000000     
 -0.28299999999999997          0.0000000000000000     
 -0.27999999999999997          0.0000000000000000     
 -0.27699999999999997          0.0000000000000000     
 -0.27399999999999997          0.0000000000000000     
 -0.27099999999999996          0.0000000000000000     
 -0.26799999999999996          0.0000000000000000     
 -0.26499999999999996          0.0000000000000000     
 -0.26199999999999996          0.0000000000000000     
 -0.25899999999999995          0.0000000000000000     
 -0.25599999999999995          0.0000000000000000     
 -0.25300000000000000          0.0000000000000000     
 -0.24999999999999997          0.0000000000000000     
 -0.24699999999999997          0.0000000000000000     
 -0.24399999999999997          0.0000000000000000     
 -0.24099999999999996          0.0000000000000000     
 -0.23799999999999996          0.0000000000000000     
 -0.23499999999999996          0.0000000000000000     
 -0.23199999999999996          0.0000000000000000     
 -0.22899999999999995          0.0000000000000000     
 -0.22599999999999995          0.0000000000000000     
 -0.22299999999999998          0.0000000000000000     
 -0.21999999999999997          0.0000000000000000     
 -0.21699999999999997          0.0000000000000000     
 -0.21399999999999997          0.0000000000000000     
 -0.21099999999999997          0.0000000000000000     
 -0.20799999999999996          0.0000000000000000     
 -0.20499999999999996          0.0000000000000000     
 -0.20199999999999996          0.0000000000000000     
 -0.19899999999999995          0.0000000000000000     
 -0.19599999999999995          0.0000000000000000     
 -0.19299999999999995          0.0000000000000000     
 -0.18999999999999997          0.0000000000000000     
 -0.18699999999999997          0.0000000000000000     
 -0.18399999999999997          0.0000000000000000     
 -0.18099999999999997          0.0000000000000000     
 -0.17799999999999996          0.0000000000000000     
 -0.17499999999999996          0.0000000000000000     
 -0.17199999999999996          0.0000000000000000     
 -0.16899999999999996          0.0000000000000000     
 -0.16599999999999995          0.0000000000000000     
 -0.16299999999999995          0.0000000000000000     
 -0.15999999999999998          0.0000000000000000     
 -0.15699999999999997          0.0000000000000000     
 -0.15399999999999997          0.0000000000000000     
 -0.15099999999999997          0.0000000000000000     
 -0.14799999999999996          0.0000000000000000     
 -0.14499999999999996          0.0000000000000000     
 -0.14199999999999996          0.0000000000000000     
 -0.13899999999999996          0.0000000000000000     
 -0.13599999999999995          0.0000000000000000     
 -0.13299999999999995          0.0000000000000000     
 -0.12999999999999995          0.0000000000000000     
 -0.12699999999999995          0.0000000000000000     
 -0.12399999999999994          0.0000000000000000     
 -0.12099999999999994          0.0000000000000000     
 -0.11799999999999994          0.0000000000000000     
 -0.11499999999999994          0.0000000000000000     
 -0.11199999999999993          0.0000000000000000     
 -0.10899999999999999          0.0000000000000000     
 -0.10599999999999998          0.0000000000000000     
 -0.10299999999999998          0.0000000000000000     
  -9.9999999999999978E-002     0.0000000000000000     
  -9.6999999999999975E-002     0.0000000000000000     
  -9.3999999999999972E-002     0.0000000000000000     
  -9.0999999999999970E-002     0.0000000000000000     
  -8.7999999999999967E-002     0.0000000000000000     
  -8.4999999999999964E-002     0.0000000000000000     
  -8.1999999999999962E-002     0.0000000000000000     
  -7.8999999999999959E-002     0.0000000000000000     
  -7.5999999999999956E-002     0.0000000000000000     
  -7.2999999999999954E-002     0.0000000000000000     
  -6.9999999999999951E-002     0.0000000000000000     
  -6.6999999999999948E-002     0.0000000000000000     
  -6.3999999999999946E-002     0.0000000000000000     
  -6.0999999999999943E-002     0.0000000000000000     
  -5.7999999999999940E-002     0.0000000000000000     
  -5.4999999999999938E-002     0.0000000000000000     
  -5.1999999999999935E-002     0.0000000000000000     
  -4.8999999999999932E-002     0.0000000000000000     
  -4.5999999999999985E-002     0.0000000000000000     
  -4.2999999999999983E-002     0.0000000000000000     
  -3.9999999999999980E-002     0.0000000000000000     
  -3.6999999999999977E-002     0.0000000000000000     
  -3.3999999999999975E-002     0.0000000000000000     
  -3.0999999999999972E-002     0.0000000000000000     
  -2.7999999999999969E-002     0.0000000000000000     
  -2.4999999999999967E-002     0.0000000000000000     
  -2.1999999999999964E-002     0.0000000000000000     
  -1.8999999999999961E-002     0.0000000000000000     
  -1.5999999999999959E-002     0.0000000000000000     
  -1.2999999999999956E-002     0.0000000000000000     
  -9.9999999999999534E-003    -8.5789675912561335E-041
  -6.9999999999999507E-003     0.0000000000000000     
  -3.9999999999999480E-003     4.7032719164735509E-040
  -9.9999999999994538E-004     4.5080611664809413E-040
   2.0000000000000573E-003    -1.2399649268274648E-039
   5.0000000000000600E-003    -2.2954635516257174E-039
   8.0000000000000626E-003     1.2560524119786138E-039
   1.1000000000000065E-002     2.0607834887853245E-038
   1.4000000000000068E-002     2.4780805028984711E-038
   1.7000000000000015E-002    -1.4800468118480971E-038
   2.0000000000000018E-002    -9.5491556852351326E-038
   2.3000000000000020E-002    -1.2374517265766027E-037
   2.6000000000000023E-002     3.3115030240074581E-038
   2.9000000000000026E-002     3.7840445896272182E-037
   3.2000000000000028E-002     5.7245729174347630E-037
   3.5000000000000031E-002     4.1502275756517818E-038
   3.8000000000000034E-002    -1.3715803485052919E-036
   4.1000000000000036E-002    -2.5089754941090347E-036
   4.4000000000000039E-002    -9.9854294308549292E-037
   4.7000000000000042E-002     4.4639892512120677E-036
   5.0000000000000044E-002     1.0382088229469451E-035
   5.3000000000000047E-002     7.4934541422629258E-036
   5.6000000000000050E-002    -1.2031892980088843E-035
   5.9000000000000052E-002    -3.9788882592829751E-035
   6.2000000000000055E-002    -4.2293615288227552E-035
   6.5000000000000058E-002     1.9780315115918231E-035
   6.8000000000000060E-002     1.3724414654940852E-034
   7.1000000000000063E-002     2.0143769846214427E-034
   7.4000000000000066E-002     3.9859706475547731E-035
   7.7000000000000068E-002    -4.0378611623380780E-034
   8.0000000000000016E-002    -8.3175306676177519E-034
   8.3000000000000018E-002    -5.7866881672777699E-034
   8.6000000000000021E-002     8.7486631802328281E-034
   8.9000000000000024E-002     2.9538773093211937E-033
   9.2000000000000026E-002     3.4390520026776601E-033
   9.5000000000000029E-002    -4.1030959504358460E-034
   9.8000000000000032E-002    -8.6172180162419274E-033
  0.10100000000000003         -1.5113899658054409E-032
  0.10400000000000004         -8.7324025253290609E-033
  0.10700000000000004          1.7654468689739027E-032
  0.11000000000000004          5.2667976627907416E-032
  0.11300000000000004          5.9762474942213692E-032
  0.11600000000000005         -3.9605971159527677E-033
  0.11900000000000005         -1.3916033575093264E-031
  0.12200000000000005         -2.5500761576975297E-031
  0.12500000000000006         -1.8097613100012204E-031
  0.12800000000000006          2.0843319644735583E-031
  0.13100000000000006          7.8817639668882669E-031
  0.13400000000000006          1.0606691575053954E-030
  0.13700000000000007          3.5210333232082040E-031
  0.14000000000000007         -1.5742399854682595E-030
  0.14300000000000007         -3.7762836755504203E-030
  0.14600000000000007         -3.9884822231255551E-030
  0.14900000000000008          1.6205443115649027E-031
  0.15200000000000008          8.5941590608536507E-030
  0.15500000000000008          1.6380837256573376E-029
  0.15800000000000008          1.4294231991324122E-029
  0.16100000000000009         -5.5017753661776160E-030
  0.16400000000000009         -3.9788673555545099E-029
  0.16700000000000009         -6.7025311254564621E-029
  0.17000000000000010         -5.2090096586518933E-029
  0.17300000000000010          3.0938875129952277E-029
  0.17600000000000010          1.6451909991698612E-028
  0.17899999999999999          2.6519039117228126E-028
  0.18200000000000000          2.0453269252838204E-028
  0.18500000000000000         -1.0941956540619919E-028
  0.18800000000000000         -6.1502913035716204E-028
  0.19100000000000000         -1.0209145991192501E-027
  0.19400000000000001         -8.7149453379521227E-028
  0.19700000000000001          1.9052080660517712E-028
  0.20000000000000001          2.0353621418476858E-027
  0.20300000000000001          3.7599465772182635E-027
  0.20600000000000002          3.8165720072885413E-027
  0.20900000000000002          7.6109965874735362E-028
  0.21200000000000002         -5.5165836102441565E-027
  0.21500000000000002         -1.2683072272482458E-026
  0.21800000000000003         -1.5897193519665091E-026
  0.22100000000000003         -9.5664178898326595E-027
  0.22400000000000003          9.1003041820633173E-027
  0.22700000000000004          3.6050540951129896E-026
  0.23000000000000004          5.8339915735415226E-026
  0.23300000000000004          5.6780934107361090E-026
  0.23600000000000004          1.4568469250399872E-026
  0.23900000000000005         -6.9927541363438461E-026
  0.24200000000000005         -1.7175740626938061E-025
  0.24500000000000005         -2.3740105392499406E-025
  0.24800000000000005         -1.9922682874779201E-025
  0.25100000000000006         -7.6997563543306248E-027
  0.25400000000000006          3.2705244236839265E-025
  0.25700000000000006          7.0293083006529144E-025
  0.26000000000000006          9.2672256866036232E-025
  0.26300000000000007          7.6692475554790382E-025
  0.26600000000000007          5.9244259227482856E-026
  0.26900000000000007         -1.1624868292638998E-024
  0.27200000000000008         -2.5653392739055732E-024
  0.27500000000000008         -3.5153763500043908E-024
  0.27800000000000008         -3.2294559809671728E-024
  0.28100000000000008         -1.0864994233149335E-024
  0.28400000000000009          2.9713977062909871E-024
  0.28700000000000009          8.0953957238155244E-024
  0.29000000000000009          1.2435974487517104E-023
  0.29300000000000009          1.3467249608717058E-023
  0.29600000000000010          8.7879235249374933E-024
  0.29900000000000010         -2.7276377936970012E-024
  0.30200000000000010         -1.9765263851435300E-023
  0.30499999999999999         -3.7888279978623234E-023
  0.30800000000000000         -4.9848490370314599E-023
  0.31100000000000000         -4.7218496492499463E-023
  0.31400000000000000         -2.3280305624889813E-023
  0.31700000000000000          2.3422103135576151E-023
  0.32000000000000001          8.5968387249261919E-023
  0.32300000000000001          1.4778127447356981E-022
  0.32600000000000001          1.8445789322290742E-022
  0.32900000000000001          1.6935644386186294E-022
  0.33200000000000002          8.2465874449770660E-023
  0.33500000000000002         -7.9286025415396817E-023
  0.33800000000000002         -2.9336626281520324E-022
  0.34100000000000003         -5.0831656659333648E-022
  0.34400000000000003         -6.4906332730920450E-022
  0.34700000000000003         -6.3246391816269519E-022
  0.35000000000000003         -3.9187880465853803E-022
  0.35300000000000004          9.3846956372151592E-023
  0.35600000000000004          7.7470905156409346E-022
  0.35900000000000004          1.5166028079769922E-021
  0.36200000000000004          2.1098765853536280E-021
  0.36500000000000005          2.3045539172420553E-021
  0.36800000000000005          1.8710635928322214E-021
  0.37100000000000005          6.7729761679937833E-022
  0.37400000000000005         -1.2350621564747484E-021
  0.37700000000000006         -3.5973897321636652E-021
  0.38000000000000006         -5.9071925774390862E-021
  0.38300000000000006         -7.4848234907973626E-021
  0.38600000000000007         -7.5989989502895559E-021
  0.38900000000000007         -5.6491565595655020E-021
  0.39200000000000007         -1.3736979743936593E-021
  0.39500000000000007          4.9629157491205974E-021
  0.39800000000000008          1.2459643302291006E-020
  0.40100000000000008          1.9596692878955205E-020
  0.40400000000000008          2.4415905739765431E-020
  0.40700000000000008          2.4866844239418300E-020
  0.41000000000000009          1.9282134683511313E-020
  0.41300000000000009          6.9043393331884019E-021
  0.41600000000000009         -1.1646437019042698E-020
  0.41900000000000009         -3.4090160104285095E-020
  0.42200000000000010         -5.6505611228301120E-020
  0.42500000000000010         -7.3727472570623101E-020
  0.42800000000000010         -8.0133659904522040E-020
  0.43100000000000011         -7.0752412684765578E-020
  0.43400000000000000         -4.2532209323592642E-020
  0.43700000000000000          4.4534310805022921E-021
  0.44000000000000000          6.6134715043964969E-020
  0.44300000000000000          1.3416840759269364E-019
  0.44600000000000001          1.9645521467745591E-019
  0.44900000000000001          2.3853895676192375E-019
  0.45200000000000001          2.4582282272128549E-019
  0.45500000000000002          2.0636850280770215E-019
  0.45800000000000002          1.1388504485684953E-019
  0.46100000000000002         -2.9600986326451600E-020
  0.46400000000000002         -2.1195197227709503E-019
  0.46700000000000003         -4.1051603311816786E-019
  0.47000000000000003         -5.9349170160404420E-019
  0.47300000000000003         -7.2321282026502438E-019
  0.47600000000000003         -7.6121617943014374E-019
  0.47900000000000004         -6.7463425244828393E-019
  0.48200000000000004         -4.4315804893531587E-019
  0.48500000000000004         -6.5572632868942240E-020
  0.48800000000000004          4.3525744952183054E-019
  0.49100000000000005          1.0100636661249920E-018
  0.49400000000000005          1.5844450193654852E-018
  0.49700000000000005          2.0643251827250941E-018
  0.50000000000000000          2.3457052646623904E-018
  0.50300000000000011          2.3282312573956409E-018
  0.50600000000000001          1.9314411720167938E-018
  0.50900000000000012          1.1119666311181645E-018
  0.51200000000000001         -1.2056393884239647E-019
  0.51500000000000012         -1.6914818347389439E-018
  0.51800000000000002         -3.4554849963468778E-018
  0.52100000000000013         -5.1998095718220312E-018
  0.52400000000000002         -6.6577958582962305E-018
  0.52700000000000014         -7.5334617469956500E-018
  0.53000000000000003         -7.5363279139031037E-018
  0.53300000000000014         -6.4241634928795837E-018
  0.53600000000000003         -4.0497251407575963E-018
  0.53900000000000015         -4.0602405014462775E-019
  0.54200000000000004          4.3364044370882639E-018
  0.54500000000000015          9.8072802662333394E-018
  0.54800000000000004          1.5436105186475782E-017
  0.55100000000000016          2.0478804650551541E-017
  0.55400000000000005          2.4074561548689638E-017
  0.55700000000000016          2.5332505874819524E-017
  0.56000000000000005          2.3443976346491534E-017
  0.56299999999999994          1.7811696012161016E-017
  0.56600000000000006          8.1827789252917957E-018
  0.56899999999999995         -5.2306491715885995E-018
  0.57200000000000006         -2.1662097396747520E-017
  0.57499999999999996         -3.9751216174720146E-017
  0.57800000000000007         -5.7571049620015020E-017
  0.58099999999999996         -7.2733882471637484E-017
  0.58400000000000007         -8.2580747143676020E-017
  0.58699999999999997         -8.4449858024323363E-017
  0.59000000000000008         -7.6009032772860359E-017
  0.59299999999999997         -5.5625726732219143E-017
  0.59600000000000009         -2.2738272540586407E-017
  0.59899999999999998          2.1816153412275114E-017
  0.60200000000000009          7.5565572133779728E-017
  0.60500000000000020          1.3430757612797162E-016
  0.60800000000000010          1.9219641116965496E-016
  0.61100000000000021          2.4204292365623170E-016
  0.61400000000000010          2.7583949338893240E-016
  0.61700000000000021          2.8549941636792964E-016
  0.62000000000000011          2.6377366628972183E-016
  0.62300000000000022          2.0528049193620638E-016
  0.62600000000000011          1.0755766025021124E-016
  0.62900000000000000         -2.7975462107848854E-017
  0.63200000000000012         -1.9526975600855380E-016
  0.63500000000000001         -3.8324286146900215E-016
  0.63800000000000012         -5.7583673057831157E-016
  0.64100000000000001         -7.5263033594020259E-016
  0.64400000000000013         -8.9006306137701346E-016
  0.64700000000000002         -9.6326750446564734E-016
  0.65000000000000013         -9.4845106866587850E-016
  0.65300000000000002         -8.2569081031458842E-016
  0.65600000000000014         -5.8193896414913890E-016
  0.65900000000000003         -2.1397135629034122E-016
  0.66200000000000014          2.6903983742603538E-016
  0.66500000000000004          8.4367235391450208E-016
  0.66800000000000015          1.4714611343499629E-015
  0.67100000000000004          2.0994727561362197E-015
  0.67400000000000015          2.6624750448776433E-015
  0.67700000000000005          3.0868193393490624E-015
  0.68000000000000016          3.2960056360878188E-015
  0.68300000000000005          3.2177316051192932E-015
  0.68600000000000017          2.7920370576793223E-015
  0.68900000000000006          1.9799689465990150E-015
  0.69200000000000017          7.7204317140077433E-016
  0.69500000000000006         -8.0437228681287087E-016
  0.69800000000000018         -2.6796645871870536E-015
  0.70100000000000007         -4.7395048986690218E-015
  0.70400000000000018         -6.8261222305177043E-015
  0.70700000000000007         -8.7439486130778070E-015
  0.71000000000000019         -1.0269995142173729E-014
  0.71300000000000008         -1.1168946131329960E-014
  0.71600000000000019         -1.1212504105720211E-014
  0.71900000000000008         -1.0202075583067101E-014
  0.72200000000000020         -7.9933867234738375E-015
  0.72500000000000009         -4.5211765894561692E-015
  0.72800000000000020          1.7821887502439451E-016
  0.73100000000000009          5.9488273697101557E-015
  0.73400000000000021          1.2504041397477561E-014
  0.73700000000000010          1.9424964363502227E-014
  0.74000000000000021          2.6170107286547647E-014
  0.74300000000000010          3.2097724225701205E-014
  0.74600000000000022          3.6501312669418547E-014
  0.74900000000000011          3.8657759051665734E-014
  0.75200000000000022          3.7886437616874228E-014
  0.75500000000000012          3.3616256144662554E-014
  0.75800000000000001          2.5456651243710865E-014
  0.76100000000000012          1.3267142403257833E-014
  0.76400000000000001         -2.7803876388260596E-015
  0.76700000000000013         -2.2153487718366612E-014
  0.77000000000000002         -4.3931266090501892E-014
  0.77300000000000013         -6.6803150451714999E-014
  0.77600000000000002         -8.9099199999874261E-014
  0.77900000000000014         -1.0885520746653175E-013
  0.78200000000000003         -1.2391406848160221E-013
  0.78500000000000014         -1.3206160629277735E-013
  0.78800000000000003         -1.3119243819999085E-013
  0.79100000000000015         -1.1949840890079285E-013
  0.79400000000000004         -9.5668902726684018E-014
  0.79700000000000015         -5.9089280811427370E-014
  0.80000000000000004         -1.0022593961877840E-014
  0.80300000000000016          5.0243348310256721E-014
  0.80600000000000005          1.1929978147578775E-013
  0.80900000000000016          1.9358862893271329E-013
  0.81200000000000006          2.6845546392891857E-013
  0.81500000000000017          3.3829425035401209E-013
  0.81800000000000006          3.9678847518318031E-013
  0.82100000000000017          4.3724841966897042E-013
  0.82400000000000007          4.5303522912186823E-013
  0.82700000000000018          4.3805644557551882E-013
  0.83000000000000007          3.8730933945785847E-013
  0.83300000000000018          2.9744109309410451E-013
  0.83600000000000008          1.6728964423388600E-013
  0.83900000000000019         -1.6389843542670067E-015
  0.84200000000000008         -2.0479568615337569E-013
  0.84500000000000020         -4.3436395627617679E-013
  0.84800000000000009         -6.7922176539359826E-013
  0.85100000000000020         -9.2512498114257643E-013
  0.85400000000000009         -1.1551343013402190E-012
  0.85700000000000021         -1.3502962736360657E-012
  0.86000000000000010         -1.4905705833256122E-012
  0.86300000000000021         -1.5559854436663802E-012
  0.86600000000000010         -1.5279722212954259E-012
  0.86900000000000022         -1.3908282381981168E-012
  0.87200000000000011         -1.1332218819585846E-012
  0.87500000000000022         -7.4965909543129543E-013
  0.87800000000000011         -2.4179806402127777E-013
  0.88100000000000001          3.8048194300479895E-013
  0.88400000000000012          1.0983750114038726E-012
  0.88700000000000001          1.8839053301519005E-012
  0.89000000000000012          2.7002154796862639E-012
  0.89300000000000002          3.5024760955492303E-012
  0.89600000000000013          4.2394239162176336E-012
  0.89900000000000002          4.8555473540271675E-012
  0.90200000000000014          5.2938806375819943E-012
  0.90500000000000003          5.4993216065998541E-012
  0.90800000000000014          5.4223526903185111E-012
  0.91100000000000003          5.0230179167797381E-012
  0.91400000000000015          4.2749518354342137E-012
  0.91700000000000004          3.1692357845382143E-012
  0.92000000000000015          1.7178532291534884E-012
  0.92300000000000004         -4.3513888027605527E-014
  0.92600000000000016         -2.0535716849131593E-012
  0.92900000000000005         -4.2246266038466576E-012
  0.93200000000000016         -6.4430760034910747E-012
  0.93500000000000005         -8.5713611917119150E-012
  0.93800000000000017         -1.0451405310176534E-011
  0.94100000000000006         -1.1909596893921385E-011
  0.94400000000000017         -1.2763204677659465E-011
  0.94700000000000006         -1.2828089901081613E-011
  0.95000000000000018         -1.1927510071690726E-011
  0.95300000000000007         -9.9016649443617423E-012
  0.95600000000000018         -6.6177076546401653E-012
  0.95900000000000007         -1.9797146234496213E-012
  0.96200000000000019          4.0617227896354643E-012
  0.96500000000000008          1.1500793905515708E-011
  0.96800000000000019          2.0268981431512581E-011
  0.97100000000000009          3.0229245110232020E-011
  0.97400000000000020          4.1172022960102323E-011
  0.97700000000000009          5.2813349507360009E-011
  0.98000000000000020          6.4795019742213162E-011
  0.98300000000000010          7.6686818048373258E-011
  0.98600000000000021          8.7990482670458326E-011
  0.98900000000000010          9.8144843744958505E-011
  0.99200000000000021          1.0653186813543453E-010
  0.99500000000000011          1.1248242162055714E-010
  0.99800000000000022          1.1528109545708381E-010
   1.0010000000000001          1.1416920108231141E-010
   1.0040000000000002          1.0834425291848840E-010
   1.0070000000000001          9.6955181659693196E-011
   1.0100000000000000          7.9091760769914307E-011
   1.0130000000000001          5.3767381323159438E-011
   1.0160000000000000          1.9893089909930192E-011
   1.0190000000000001         -2.3757018268228327E-011
   1.0220000000000000         -7.8591023453248317E-011
   1.0250000000000001         -1.4625693475869882E-010
   1.0280000000000000         -2.2871225066540768E-010
   1.0310000000000001         -3.2830661489450810E-010
   1.0340000000000000         -4.4787884734605511E-010
   1.0370000000000001         -5.9086828881787937E-010
   1.0400000000000000         -7.6144145870921402E-010
   1.0430000000000001         -9.6463457449857885E-010
   1.0460000000000000         -1.2065141171586201E-009
   1.0490000000000002         -1.4943526972822284E-009
   1.0520000000000000         -1.8368257151214680E-009
   1.0550000000000002         -2.2442229188943235E-009
   1.0580000000000001         -2.7286867304855667E-009
   1.0610000000000002         -3.3044693617391968E-009
   1.0640000000000001         -3.9882138519929480E-009
   1.0670000000000002         -4.7992689820346498E-009
   1.0700000000000001         -5.7600219197561091E-009
   1.0730000000000002         -6.8962755727313363E-009
   1.0760000000000001         -8.2376527165703790E-009
   1.0790000000000002         -9.8180300938656553E-009
   1.0820000000000001         -1.1676039923169765E-008
   1.0850000000000002         -1.3855581518695312E-008
   1.0880000000000001         -1.6406410139592284E-008
   1.0910000000000002         -1.9384782880538419E-008
   1.0940000000000001         -2.2854098901022757E-008
   1.0970000000000002         -2.6885623162675277E-008
