 -0.39999999999999997          0.0000000000000000     
 -0.39699999999999996          0.0000000000000000     
 -0.39399999999999996          0.0000000000000000     
 -0.39099999999999996          0.0000000000000000     
 -0.38799999999999996          0.0000000000000000     
 -0.38499999999999995          0.0000000000000000     
 -0.38199999999999995          0.0000000000000000     
 -0.37899999999999995          0.0000000000000000     
 -0.37599999999999995          0.0000000000000000     
 -0.37299999999999994          0.0000000000000000     
 -0.37000000000000000          0.0000000000000000     
 -0.36699999999999999          0.0000000000000000     
 -0.36399999999999999          0.0000000000000000     
 -0.36099999999999999          0.0000000000000000     
 -0.35799999999999998          0.0000000000000000     
 -0.35499999999999998          0.0000000000000000     
 -0.35199999999999998          0.0000000000000000     
 -0.34899999999999998          0.0000000000000000     
 -0.34599999999999997          0.0000000000000000     
 -0.34299999999999997          0.0000000000000000     
 -0.33999999999999997          0.0000000000000000     
 -0.33699999999999997          0.0000000000000000     
 -0.33399999999999996          0.0000000000000000     
 -0.33099999999999996          0.0000000000000000     
 -0.32799999999999996          0.0000000000000000     
 -0.32499999999999996          0.0000000000000000     
 -0.32199999999999995          0.0000000000000000     
 -0.31899999999999995          0.0000000000000000     
 -0.31599999999999995          0.0000000000000000     
 -0.31299999999999994          0.0000000000000000     
 -0.30999999999999994          0.0000000000000000     
 -0.30699999999999994          0.0000000000000000     
 -0.30399999999999994          0.0000000000000000     
 -0.30099999999999993          0.0000000000000000     
 -0.29799999999999993          0.0000000000000000     
 -0.29499999999999998          0.0000000000000000     
 -0.29199999999999998          0.0000000000000000     
 -0.28899999999999998          0.0000000000000000     
 -0.28599999999999998          0.0000000000000000     
 -0.28299999999999997          0.0000000000000000     
 -0.27999999999999997          0.0000000000000000     
 -0.27699999999999997          0.0000000000000000     
 -0.27399999999999997          0.0000000000000000     
 -0.27099999999999996          0.0000000000000000     
 -0.26799999999999996          0.0000000000000000     
 -0.26499999999999996          0.0000000000000000     
 -0.26199999999999996          0.0000000000000000     
 -0.25899999999999995          0.0000000000000000     
 -0.25599999999999995          0.0000000000000000     
 -0.25300000000000000          0.0000000000000000     
 -0.24999999999999997          0.0000000000000000     
 -0.24699999999999997          0.0000000000000000     
 -0.24399999999999997          0.0000000000000000     
 -0.24099999999999996          0.0000000000000000     
 -0.23799999999999996          0.0000000000000000     
 -0.23499999999999996          0.0000000000000000     
 -0.23199999999999996          0.0000000000000000     
 -0.22899999999999995          0.0000000000000000     
 -0.22599999999999995          0.0000000000000000     
 -0.22299999999999998          0.0000000000000000     
 -0.21999999999999997          0.0000000000000000     
 -0.21699999999999997          0.0000000000000000     
 -0.21399999999999997          0.0000000000000000     
 -0.21099999999999997          0.0000000000000000     
 -0.20799999999999996          0.0000000000000000     
 -0.20499999999999996          0.0000000000000000     
 -0.20199999999999996          0.0000000000000000     
 -0.19899999999999995          0.0000000000000000     
 -0.19599999999999995          0.0000000000000000     
 -0.19299999999999995          0.0000000000000000     
 -0.18999999999999997          0.0000000000000000     
 -0.18699999999999997          0.0000000000000000     
 -0.18399999999999997          0.0000000000000000     
 -0.18099999999999997          0.0000000000000000     
 -0.17799999999999996          0.0000000000000000     
 -0.17499999999999996          0.0000000000000000     
 -0.17199999999999996          0.0000000000000000     
 -0.16899999999999996          0.0000000000000000     
 -0.16599999999999995          0.0000000000000000     
 -0.16299999999999995          0.0000000000000000     
 -0.15999999999999998          0.0000000000000000     
 -0.15699999999999997          0.0000000000000000     
 -0.15399999999999997          0.0000000000000000     
 -0.15099999999999997          0.0000000000000000     
 -0.14799999999999996          0.0000000000000000     
 -0.14499999999999996          0.0000000000000000     
 -0.14199999999999996          0.0000000000000000     
 -0.13899999999999996          0.0000000000000000     
 -0.13599999999999995          0.0000000000000000     
 -0.13299999999999995          0.0000000000000000     
 -0.12999999999999995          0.0000000000000000     
 -0.12699999999999995          0.0000000000000000     
 -0.12399999999999994          0.0000000000000000     
 -0.12099999999999994          0.0000000000000000     
 -0.11799999999999994          0.0000000000000000     
 -0.11499999999999994          0.0000000000000000     
 -0.11199999999999993          0.0000000000000000     
 -0.10899999999999999          0.0000000000000000     
 -0.10599999999999998          0.0000000000000000     
 -0.10299999999999998          0.0000000000000000     
  -9.9999999999999978E-002     0.0000000000000000     
  -9.6999999999999975E-002     0.0000000000000000     
  -9.3999999999999972E-002     0.0000000000000000     
  -9.0999999999999970E-002     0.0000000000000000     
  -8.7999999999999967E-002     0.0000000000000000     
  -8.4999999999999964E-002     0.0000000000000000     
  -8.1999999999999962E-002     0.0000000000000000     
  -7.8999999999999959E-002     0.0000000000000000     
  -7.5999999999999956E-002     0.0000000000000000     
  -7.2999999999999954E-002     0.0000000000000000     
  -6.9999999999999951E-002     0.0000000000000000     
  -6.6999999999999948E-002     0.0000000000000000     
  -6.3999999999999946E-002     0.0000000000000000     
  -6.0999999999999943E-002     0.0000000000000000     
  -5.7999999999999940E-002     0.0000000000000000     
  -5.4999999999999938E-002     0.0000000000000000     
  -5.1999999999999935E-002     0.0000000000000000     
  -4.8999999999999932E-002     0.0000000000000000     
  -4.5999999999999985E-002     0.0000000000000000     
  -4.2999999999999983E-002     0.0000000000000000     
  -3.9999999999999980E-002     0.0000000000000000     
  -3.6999999999999977E-002     0.0000000000000000     
  -3.3999999999999975E-002     0.0000000000000000     
  -3.0999999999999972E-002     0.0000000000000000     
  -2.7999999999999969E-002     0.0000000000000000     
  -2.4999999999999967E-002     0.0000000000000000     
  -2.1999999999999964E-002     0.0000000000000000     
  -1.8999999999999961E-002     0.0000000000000000     
  -1.5999999999999959E-002     0.0000000000000000     
  -1.2999999999999956E-002     0.0000000000000000     
  -9.9999999999999534E-003     0.0000000000000000     
  -6.9999999999999507E-003     0.0000000000000000     
  -3.9999999999999480E-003     0.0000000000000000     
  -9.9999999999994538E-004     0.0000000000000000     
   2.0000000000000573E-003     0.0000000000000000     
   5.0000000000000600E-003     0.0000000000000000     
   8.0000000000000626E-003     0.0000000000000000     
   1.1000000000000065E-002     0.0000000000000000     
   1.4000000000000068E-002     0.0000000000000000     
   1.7000000000000015E-002     0.0000000000000000     
   2.0000000000000018E-002     0.0000000000000000     
   2.3000000000000020E-002     0.0000000000000000     
   2.6000000000000023E-002     0.0000000000000000     
   2.9000000000000026E-002     0.0000000000000000     
   3.2000000000000028E-002     0.0000000000000000     
   3.5000000000000031E-002     0.0000000000000000     
   3.8000000000000034E-002     0.0000000000000000     
   4.1000000000000036E-002     0.0000000000000000     
   4.4000000000000039E-002     0.0000000000000000     
   4.7000000000000042E-002     0.0000000000000000     
   5.0000000000000044E-002     0.0000000000000000     
   5.3000000000000047E-002     0.0000000000000000     
   5.6000000000000050E-002     0.0000000000000000     
   5.9000000000000052E-002     0.0000000000000000     
   6.2000000000000055E-002     0.0000000000000000     
   6.5000000000000058E-002     0.0000000000000000     
   6.8000000000000060E-002     0.0000000000000000     
   7.1000000000000063E-002     0.0000000000000000     
   7.4000000000000066E-002     0.0000000000000000     
   7.7000000000000068E-002     0.0000000000000000     
   8.0000000000000016E-002     0.0000000000000000     
   8.3000000000000018E-002     0.0000000000000000     
   8.6000000000000021E-002     0.0000000000000000     
   8.9000000000000024E-002     0.0000000000000000     
   9.2000000000000026E-002     0.0000000000000000     
   9.5000000000000029E-002     0.0000000000000000     
   9.8000000000000032E-002     0.0000000000000000     
  0.10100000000000003          0.0000000000000000     
  0.10400000000000004          0.0000000000000000     
  0.10700000000000004          0.0000000000000000     
  0.11000000000000004          0.0000000000000000     
  0.11300000000000004          0.0000000000000000     
  0.11600000000000005          0.0000000000000000     
  0.11900000000000005          0.0000000000000000     
  0.12200000000000005          0.0000000000000000     
  0.12500000000000006          0.0000000000000000     
  0.12800000000000006          0.0000000000000000     
  0.13100000000000006          0.0000000000000000     
  0.13400000000000006          0.0000000000000000     
  0.13700000000000007          0.0000000000000000     
  0.14000000000000007          0.0000000000000000     
  0.14300000000000007          0.0000000000000000     
  0.14600000000000007          0.0000000000000000     
  0.14900000000000008          0.0000000000000000     
  0.15200000000000008          0.0000000000000000     
  0.15500000000000008          0.0000000000000000     
  0.15800000000000008          0.0000000000000000     
  0.16100000000000009          0.0000000000000000     
  0.16400000000000009          0.0000000000000000     
  0.16700000000000009          0.0000000000000000     
  0.17000000000000010          0.0000000000000000     
  0.17300000000000010          0.0000000000000000     
  0.17600000000000010          0.0000000000000000     
  0.17899999999999999          0.0000000000000000     
  0.18200000000000000          0.0000000000000000     
  0.18500000000000000          0.0000000000000000     
  0.18800000000000000          0.0000000000000000     
  0.19100000000000000          0.0000000000000000     
  0.19400000000000001          0.0000000000000000     
  0.19700000000000001          0.0000000000000000     
  0.20000000000000001          0.0000000000000000     
  0.20300000000000001          0.0000000000000000     
  0.20600000000000002          0.0000000000000000     
  0.20900000000000002          0.0000000000000000     
  0.21200000000000002          0.0000000000000000     
  0.21500000000000002          0.0000000000000000     
  0.21800000000000003          0.0000000000000000     
  0.22100000000000003          0.0000000000000000     
  0.22400000000000003          0.0000000000000000     
  0.22700000000000004          0.0000000000000000     
  0.23000000000000004          0.0000000000000000     
  0.23300000000000004          0.0000000000000000     
  0.23600000000000004          0.0000000000000000     
  0.23900000000000005          0.0000000000000000     
  0.24200000000000005          0.0000000000000000     
  0.24500000000000005          0.0000000000000000     
  0.24800000000000005          0.0000000000000000     
  0.25100000000000006          0.0000000000000000     
  0.25400000000000006          0.0000000000000000     
  0.25700000000000006          0.0000000000000000     
  0.26000000000000006          0.0000000000000000     
  0.26300000000000007          0.0000000000000000     
  0.26600000000000007          0.0000000000000000     
  0.26900000000000007          0.0000000000000000     
  0.27200000000000008          0.0000000000000000     
  0.27500000000000008          0.0000000000000000     
  0.27800000000000008          0.0000000000000000     
  0.28100000000000008          0.0000000000000000     
  0.28400000000000009          0.0000000000000000     
  0.28700000000000009          0.0000000000000000     
  0.29000000000000009          0.0000000000000000     
  0.29300000000000009          0.0000000000000000     
  0.29600000000000010          0.0000000000000000     
  0.29900000000000010          1.0558155086478497E-040
  0.30200000000000010         -1.3649165724859688E-040
  0.30499999999999999         -3.3683673239451570E-040
  0.30800000000000000          5.0971977860895916E-040
  0.31100000000000000          3.8289389136818006E-040
  0.31400000000000000         -1.6562017631859427E-039
  0.31700000000000000         -1.2538851138264567E-038
  0.32000000000000001         -1.5936443023784980E-038
  0.32300000000000001         -1.1928455343042830E-038
  0.32600000000000001          1.4612864687774904E-039
  0.32900000000000001          3.1781549773964298E-038
  0.33200000000000002          6.4383288464898248E-038
  0.33500000000000002          8.4858942933027182E-038
  0.33800000000000002          7.1629449220207387E-038
  0.34100000000000003         -3.0635458290449771E-040
  0.34400000000000003         -1.1283527870436954E-037
  0.34700000000000003         -2.6969113751505401E-037
  0.35000000000000003         -4.0278502975708952E-037
  0.35300000000000004         -4.2168563458810934E-037
  0.35600000000000004         -2.3066986154382159E-037
  0.35900000000000004          2.3147541658449880E-037
  0.36200000000000004          9.3144471104576678E-037
  0.36500000000000005          1.6893393128760868E-036
  0.36800000000000005          2.1654777694457922E-036
  0.37100000000000005          1.9172413613798861E-036
  0.37400000000000005          5.3905393161435492E-037
  0.37700000000000006         -2.1196754234136805E-036
  0.38000000000000006         -5.7044343613163953E-036
  0.38300000000000006         -9.1787683217164311E-036
  0.38600000000000007         -1.0849439591738436E-035
  0.38900000000000007         -8.6929944274917993E-036
  0.39200000000000007         -1.0488866491264479E-036
  0.39500000000000007          1.2404688002374736E-035
  0.39800000000000008          2.9638608070081146E-035
  0.40100000000000008          4.5644787178782365E-035
  0.40400000000000008          5.2682333588720368E-035
  0.40700000000000008          4.1824629309844754E-035
  0.41000000000000009          5.9563828227364696E-036
  0.41300000000000009         -5.6147935020233095E-035
  0.41600000000000009         -1.3569264577791485E-034
  0.41900000000000009         -2.1129908295532717E-034
  0.42200000000000010         -2.4993285076179553E-034
  0.42500000000000010         -2.1298515727898063E-034
  0.42800000000000010         -6.8091261282933477E-035
  0.43100000000000011          1.9462114809987353E-034
  0.43400000000000000          5.4554160967724018E-034
  0.43700000000000000          9.0383178792923748E-034
  0.44000000000000000          1.1382258263818467E-033
  0.44300000000000000          1.0869845377511125E-033
  0.44600000000000001          6.0014974242966932E-034
  0.44900000000000001         -3.9912109706187634E-034
  0.45200000000000001         -1.8459037154450735E-033
  0.45500000000000002         -3.4779943371205820E-033
  0.45800000000000002         -4.8200846916819984E-033
  0.46100000000000002         -5.2338441488162005E-033
  0.46400000000000002         -4.0512194174850416E-033
  0.46700000000000003         -7.8809069890012770E-034
  0.47000000000000003          4.5925356600098393E-033
  0.47300000000000003          1.1431091238118871E-032
  0.47600000000000003          1.8225510864232561E-032
  0.47900000000000004          2.2688983493961162E-032
  0.48200000000000004          2.2093967706872401E-032
  0.48500000000000004          1.3932425561183165E-032
  0.48800000000000004         -3.1639053274486414E-033
  0.49100000000000005         -2.8409195312903901E-032
  0.49400000000000005         -5.8029496099246311E-032
  0.49700000000000005         -8.4955504116934301E-032
  0.50000000000000000         -9.9388818793177575E-032
  0.50300000000000011         -9.0480838292688376E-032
  0.50600000000000001         -4.9134455132875044E-032
  0.50900000000000012          2.8390959179651977E-032
  0.51200000000000001          1.3678073650667498E-031
  0.51500000000000012          2.5892496025622448E-031
  0.51800000000000002          3.6538171792717526E-031
  0.52100000000000013          4.1719518180229719E-031
  0.52400000000000002          3.7276274164628196E-031
  0.52700000000000014          1.9858651137939987E-031
  0.53000000000000003         -1.1743062625524645E-031
  0.53300000000000014         -5.5278839251570932E-031
  0.53600000000000003         -1.0410042283152270E-030
  0.53900000000000015         -1.4703301068247203E-030
  0.54200000000000004         -1.6943947401413134E-030
  0.54500000000000015         -1.5569518865994981E-030
  0.54800000000000004         -9.3000623032679261E-031
  0.55100000000000016          2.3930609292152839E-031
  0.55400000000000005          1.8819289049164164E-030
  0.55700000000000016          3.7726402066397291E-030
  0.56000000000000005          5.5224531141843890E-030
  0.56299999999999994          6.6106702881105868E-030
  0.56600000000000006          6.4642237047004644E-030
  0.56899999999999995          4.5831465918833326E-030
  0.57200000000000006          6.9854144431988431E-031
  0.57499999999999996         -5.0637896862235687E-030
  0.57800000000000007         -1.2053044961187138E-029
  0.58099999999999996         -1.9041839779498972E-029
  0.58400000000000007         -2.4296685804661728E-029
  0.58699999999999997         -2.5800403679357137E-029
  0.59000000000000008         -2.1630386036017011E-029
  0.59299999999999997         -1.0461003022341450E-029
  0.59600000000000009          7.8835347608073741E-030
  0.59899999999999998          3.1938774628936681E-029
  0.60200000000000009          5.8310281965496887E-029
  0.60500000000000020          8.1727213046397036E-029
  0.60800000000000010          9.5552393624450988E-029
  0.61100000000000021          9.2797366106217072E-029
  0.61400000000000010          6.7592719500480422E-029
  0.61700000000000021          1.6941713268519246E-029
  0.62000000000000011         -5.7535439929976622E-029
  0.62300000000000022         -1.4826291111199051E-028
  0.62600000000000011         -2.4121451066927530E-028
  0.62900000000000000         -3.1666631685207583E-028
  0.63200000000000012         -3.5146454780814163E-028
  0.63500000000000001         -3.2283067678176507E-028
  0.63800000000000012         -2.1341521896227887E-028
  0.64100000000000001         -1.6932995314007683E-029
  0.64400000000000013          2.5661737994390168E-028
  0.64700000000000002          5.7739614064850974E-028
  0.65000000000000013          8.9510967421046869E-028
  0.65300000000000002          1.1424482579391508E-027
  0.65600000000000014          1.2431743064050548E-027
  0.65900000000000003          1.1247156356555078E-027
  0.66200000000000014          7.3416037153935297E-028
  0.66500000000000004          5.5485565064802563E-029
  0.66800000000000015         -8.7499722106644726E-028
  0.67100000000000004         -1.9586468298432997E-027
  0.67400000000000015         -3.0335714815207343E-027
  0.67700000000000005         -3.8857918738439753E-027
  0.68000000000000016         -4.2740379708756594E-027
  0.68300000000000005         -3.9675157500027341E-027
  0.68600000000000017         -2.7934044524217418E-027
  0.68900000000000006         -6.8799464336294275E-028
  0.69200000000000017          2.2571536717698801E-027
  0.69500000000000006          5.7639590392293662E-027
  0.69800000000000018          9.3617624285554794E-027
  0.70100000000000007          1.2414823830576103E-026
  0.70400000000000018          1.4188138396314727E-026
  0.70700000000000007          1.3950614396395914E-026
  0.71000000000000019          1.1107769838818995E-026
  0.71300000000000008          5.3486881535896050E-027
  0.71600000000000019         -3.2145656201191860E-027
  0.71900000000000008         -1.3941902301665355E-026
  0.72200000000000020         -2.5621835321627055E-026
  0.72500000000000009         -3.6514426864458539E-026
  0.72800000000000020         -4.4496919102991004E-026
  0.73100000000000009         -4.7315031133692388E-026
  0.73400000000000021         -4.2926211569986593E-026
  0.73700000000000010         -2.9902441127241790E-026
  0.74000000000000021         -7.8417835661170515E-027
  0.74300000000000010          2.2276778682151963E-026
  0.74600000000000022          5.7866359773601603E-026
  0.74900000000000011          9.4705589899026689E-026
  0.75200000000000022          1.2716593140161699E-025
  0.75500000000000012          1.4872407419256978E-025
  0.75800000000000001          1.5275214581485680E-025
  0.76100000000000012          1.3353273452992168E-025
  0.76400000000000001          8.7401386595900618E-026
  0.76700000000000013          1.3869447026055127E-026
  0.77000000000000002         -8.3444424603598555E-026
  0.77300000000000013         -1.9626176431508660E-025
  0.77600000000000002         -3.1165441034521620E-025
  0.77900000000000014         -4.1274902336375087E-025
  0.78200000000000003         -4.8019970916573717E-025
  0.78500000000000014         -4.9440329827779975E-025
  0.78800000000000003         -4.3831689920658160E-025
  0.79100000000000015         -3.0062734184057954E-025
  0.79400000000000004         -7.8900781811086508E-026
  0.79700000000000015          2.1773412110314546E-025
  0.80000000000000004          5.6686436461515020E-025
  0.80300000000000016          9.3251053715936291E-025
  0.80600000000000005          1.2666720070263965E-024
  0.80900000000000016          1.5129300362246590E-024
  0.81200000000000006          1.6121491845129946E-024
  0.81500000000000017          1.5099637825655603E-024
  0.81800000000000006          1.1655410663388133E-024
  0.82100000000000017          5.6068151963736588E-025
  0.82400000000000007         -2.9181940309861284E-025
  0.82700000000000018         -1.3418541628013710E-024
  0.83000000000000007         -2.4991094964000807E-024
  0.83300000000000018         -3.6347490572465112E-024
  0.83600000000000008         -4.5886603640637109E-024
  0.83900000000000019         -5.1826372171075287E-024
  0.84200000000000008         -5.2392597726588921E-024
  0.84500000000000020         -4.6054612864962860E-024
  0.84800000000000009         -3.1788814848605045E-024
  0.85100000000000020         -9.3434597704481762E-025
  0.85400000000000009          2.0529090009238743E-024
  0.85700000000000021          5.5910293298051765E-024
  0.86000000000000010          9.3661000336282478E-024
  0.86300000000000021          1.2950917234559315E-023
  0.86600000000000010          1.5830241486007864E-023
  0.86900000000000022          1.7443632911960576E-023
  0.87200000000000011          1.7244781270850596E-023
  0.87500000000000022          1.4774036643582461E-023
  0.87800000000000011          9.7383025311094438E-024
  0.88100000000000001          2.0906348000103222E-024
  0.88400000000000012         -7.9007512521322697E-024
  0.88700000000000001         -1.9605092088485430E-023
  0.89000000000000012         -3.2014094246216089E-023
  0.89300000000000002         -4.3769534788777729E-023
  0.89600000000000013         -5.3240385577900905E-023
  0.89900000000000002         -5.8652355392631677E-023
  0.90200000000000014         -5.8267157981396865E-023
  0.90500000000000003         -5.0602134000892425E-023
  0.90800000000000014         -3.4674090356696851E-023
  0.91100000000000003         -1.0243736048995858E-023
  0.91400000000000015          2.1966913664991527E-023
  0.91700000000000004          6.0118649596267187E-023
  0.92000000000000015          1.0119074344182357E-022
  0.92300000000000004          1.4104069729110332E-022
  0.92600000000000016          1.7460935435784041E-022
  0.92900000000000005          1.9628484332337488E-022
  0.93200000000000016          2.0041778972439063E-022
  0.93500000000000005          1.8196978325488830E-022
  0.93800000000000017          1.3724747899532853E-022
  0.94100000000000006          6.4665383280292653E-023
  0.94400000000000017         -3.4548534759660797E-023
  0.94700000000000006         -1.5579435033058217E-022
  0.95000000000000018         -2.9078668112524555E-022
  0.95300000000000007         -4.2758333590903788E-022
  0.95600000000000018         -5.5102926481854079E-022
  0.95900000000000007         -6.4366671386776044E-022
  0.96200000000000019         -6.8712628877660199E-022
  0.96500000000000008         -6.6395120195195250E-022
  0.96800000000000019         -5.5976079837626275E-022
  0.97100000000000009         -3.6559890119405898E-022
  0.97400000000000020         -8.0249434173550802E-023
  0.97700000000000009          2.8773539721088526E-022
  0.98000000000000020          7.1858405504195828E-022
  0.98300000000000010          1.1807300491754590E-021
  0.98600000000000021          1.6313603045231809E-021
  0.98900000000000010          2.0183067215652948E-021
  0.99200000000000021          2.2834032027990266E-021
  0.99500000000000011          2.3672782746491543E-021
  0.99800000000000022          2.2153922475828283E-021
   1.0010000000000001          1.7850284801566125E-021
   1.0040000000000002          1.0526979496895468E-021
   1.0070000000000001          2.1217386977268961E-023
   1.0100000000000000         -1.2742144054982645E-021
   1.0130000000000001         -2.7619441703058482E-021
   1.0160000000000000         -4.3325916830020180E-021
   1.0190000000000001         -5.8414241134714384E-021
   1.0220000000000000         -7.1149095688061133E-021
   1.0250000000000001         -7.9617561150380972E-021
   1.0280000000000000         -8.1884131723607887E-021
   1.0310000000000001         -7.6183861390039290E-021
   1.0340000000000000         -6.1143991213193370E-021
   1.0370000000000001         -3.6016040765883883E-021
   1.0400000000000000         -9.0084939955024275E-023
   1.0430000000000001          4.3060925566225917E-021
   1.0460000000000000          9.3557634926844064E-021
   1.0490000000000002          1.4706325168817474E-020
   1.0520000000000000          1.9890262165574298E-020
   1.0550000000000002          2.4344847873418843E-020
   1.0580000000000001          2.7445639746814765E-020
   1.0610000000000002          2.8553887472614069E-020
   1.0640000000000001          2.7076056439549428E-020
   1.0670000000000002          2.2533016315690668E-020
   1.0700000000000001          1.4633635295214630E-020
   1.0730000000000002          3.3466494968840524E-021
   1.0760000000000001         -1.1035314732949259E-020
   1.0790000000000002         -2.7848891736788985E-020
   1.0820000000000001         -4.6038343034214856E-020
   1.0850000000000002         -6.4165998178976013E-020
   1.0880000000000001         -8.0461729726249342E-020
   1.0910000000000002         -9.2915405454761743E-020
   1.0940000000000001         -9.9413146216261751E-020
   1.0970000000000002         -9.7914011422488172E-020
