 -0.39999999999999997          0.0000000000000000     
 -0.39699999999999996          0.0000000000000000     
 -0.39399999999999996          0.0000000000000000     
 -0.39099999999999996          0.0000000000000000     
 -0.38799999999999996          0.0000000000000000     
 -0.38499999999999995          0.0000000000000000     
 -0.38199999999999995          0.0000000000000000     
 -0.37899999999999995          0.0000000000000000     
 -0.37599999999999995          0.0000000000000000     
 -0.37299999999999994          0.0000000000000000     
 -0.37000000000000000          0.0000000000000000     
 -0.36699999999999999          0.0000000000000000     
 -0.36399999999999999          0.0000000000000000     
 -0.36099999999999999          0.0000000000000000     
 -0.35799999999999998          0.0000000000000000     
 -0.35499999999999998          0.0000000000000000     
 -0.35199999999999998          0.0000000000000000     
 -0.34899999999999998          0.0000000000000000     
 -0.34599999999999997          0.0000000000000000     
 -0.34299999999999997          0.0000000000000000     
 -0.33999999999999997          0.0000000000000000     
 -0.33699999999999997          0.0000000000000000     
 -0.33399999999999996          0.0000000000000000     
 -0.33099999999999996          0.0000000000000000     
 -0.32799999999999996          0.0000000000000000     
 -0.32499999999999996          0.0000000000000000     
 -0.32199999999999995          0.0000000000000000     
 -0.31899999999999995          0.0000000000000000     
 -0.31599999999999995          0.0000000000000000     
 -0.31299999999999994          0.0000000000000000     
 -0.30999999999999994          0.0000000000000000     
 -0.30699999999999994          0.0000000000000000     
 -0.30399999999999994          0.0000000000000000     
 -0.30099999999999993          0.0000000000000000     
 -0.29799999999999993          0.0000000000000000     
 -0.29499999999999998          0.0000000000000000     
 -0.29199999999999998          0.0000000000000000     
 -0.28899999999999998          0.0000000000000000     
 -0.28599999999999998          0.0000000000000000     
 -0.28299999999999997          0.0000000000000000     
 -0.27999999999999997          0.0000000000000000     
 -0.27699999999999997          0.0000000000000000     
 -0.27399999999999997          0.0000000000000000     
 -0.27099999999999996          0.0000000000000000     
 -0.26799999999999996          0.0000000000000000     
 -0.26499999999999996          0.0000000000000000     
 -0.26199999999999996          0.0000000000000000     
 -0.25899999999999995          0.0000000000000000     
 -0.25599999999999995          0.0000000000000000     
 -0.25300000000000000          0.0000000000000000     
 -0.24999999999999997          0.0000000000000000     
 -0.24699999999999997          0.0000000000000000     
 -0.24399999999999997          0.0000000000000000     
 -0.24099999999999996          0.0000000000000000     
 -0.23799999999999996          0.0000000000000000     
 -0.23499999999999996          0.0000000000000000     
 -0.23199999999999996          0.0000000000000000     
 -0.22899999999999995          0.0000000000000000     
 -0.22599999999999995          0.0000000000000000     
 -0.22299999999999998          0.0000000000000000     
 -0.21999999999999997          0.0000000000000000     
 -0.21699999999999997          0.0000000000000000     
 -0.21399999999999997          0.0000000000000000     
 -0.21099999999999997          0.0000000000000000     
 -0.20799999999999996          0.0000000000000000     
 -0.20499999999999996          0.0000000000000000     
 -0.20199999999999996          0.0000000000000000     
 -0.19899999999999995          0.0000000000000000     
 -0.19599999999999995          0.0000000000000000     
 -0.19299999999999995          0.0000000000000000     
 -0.18999999999999997          0.0000000000000000     
 -0.18699999999999997          0.0000000000000000     
 -0.18399999999999997          0.0000000000000000     
 -0.18099999999999997          0.0000000000000000     
 -0.17799999999999996          0.0000000000000000     
 -0.17499999999999996          0.0000000000000000     
 -0.17199999999999996          0.0000000000000000     
 -0.16899999999999996          0.0000000000000000     
 -0.16599999999999995          0.0000000000000000     
 -0.16299999999999995          0.0000000000000000     
 -0.15999999999999998          0.0000000000000000     
 -0.15699999999999997          0.0000000000000000     
 -0.15399999999999997          0.0000000000000000     
 -0.15099999999999997          0.0000000000000000     
 -0.14799999999999996          0.0000000000000000     
 -0.14499999999999996          0.0000000000000000     
 -0.14199999999999996          0.0000000000000000     
 -0.13899999999999996          0.0000000000000000     
 -0.13599999999999995          0.0000000000000000     
 -0.13299999999999995          0.0000000000000000     
 -0.12999999999999995          0.0000000000000000     
 -0.12699999999999995          0.0000000000000000     
 -0.12399999999999994          0.0000000000000000     
 -0.12099999999999994          0.0000000000000000     
 -0.11799999999999994          0.0000000000000000     
 -0.11499999999999994          0.0000000000000000     
 -0.11199999999999993          0.0000000000000000     
 -0.10899999999999999          0.0000000000000000     
 -0.10599999999999998          0.0000000000000000     
 -0.10299999999999998          0.0000000000000000     
  -9.9999999999999978E-002     0.0000000000000000     
  -9.6999999999999975E-002     0.0000000000000000     
  -9.3999999999999972E-002     0.0000000000000000     
  -9.0999999999999970E-002     0.0000000000000000     
  -8.7999999999999967E-002     0.0000000000000000     
  -8.4999999999999964E-002     0.0000000000000000     
  -8.1999999999999962E-002     0.0000000000000000     
  -7.8999999999999959E-002     0.0000000000000000     
  -7.5999999999999956E-002     0.0000000000000000     
  -7.2999999999999954E-002     0.0000000000000000     
  -6.9999999999999951E-002     0.0000000000000000     
  -6.6999999999999948E-002     0.0000000000000000     
  -6.3999999999999946E-002     0.0000000000000000     
  -6.0999999999999943E-002     0.0000000000000000     
  -5.7999999999999940E-002     0.0000000000000000     
  -5.4999999999999938E-002     0.0000000000000000     
  -5.1999999999999935E-002     0.0000000000000000     
  -4.8999999999999932E-002     0.0000000000000000     
  -4.5999999999999985E-002     0.0000000000000000     
  -4.2999999999999983E-002     0.0000000000000000     
  -3.9999999999999980E-002     0.0000000000000000     
  -3.6999999999999977E-002     0.0000000000000000     
  -3.3999999999999975E-002     0.0000000000000000     
  -3.0999999999999972E-002     0.0000000000000000     
  -2.7999999999999969E-002     0.0000000000000000     
  -2.4999999999999967E-002     0.0000000000000000     
  -2.1999999999999964E-002     0.0000000000000000     
  -1.8999999999999961E-002     0.0000000000000000     
  -1.5999999999999959E-002     0.0000000000000000     
  -1.2999999999999956E-002     0.0000000000000000     
  -9.9999999999999534E-003     0.0000000000000000     
  -6.9999999999999507E-003     0.0000000000000000     
  -3.9999999999999480E-003     0.0000000000000000     
  -9.9999999999994538E-004     0.0000000000000000     
   2.0000000000000573E-003     0.0000000000000000     
   5.0000000000000600E-003     0.0000000000000000     
   8.0000000000000626E-003     0.0000000000000000     
   1.1000000000000065E-002     0.0000000000000000     
   1.4000000000000068E-002     0.0000000000000000     
   1.7000000000000015E-002     0.0000000000000000     
   2.0000000000000018E-002     0.0000000000000000     
   2.3000000000000020E-002     0.0000000000000000     
   2.6000000000000023E-002     0.0000000000000000     
   2.9000000000000026E-002     0.0000000000000000     
   3.2000000000000028E-002     0.0000000000000000     
   3.5000000000000031E-002     0.0000000000000000     
   3.8000000000000034E-002     0.0000000000000000     
   4.1000000000000036E-002     0.0000000000000000     
   4.4000000000000039E-002     0.0000000000000000     
   4.7000000000000042E-002     0.0000000000000000     
   5.0000000000000044E-002     0.0000000000000000     
   5.3000000000000047E-002     0.0000000000000000     
   5.6000000000000050E-002     0.0000000000000000     
   5.9000000000000052E-002     0.0000000000000000     
   6.2000000000000055E-002     0.0000000000000000     
   6.5000000000000058E-002     0.0000000000000000     
   6.8000000000000060E-002     0.0000000000000000     
   7.1000000000000063E-002     0.0000000000000000     
   7.4000000000000066E-002     0.0000000000000000     
   7.7000000000000068E-002     0.0000000000000000     
   8.0000000000000016E-002     0.0000000000000000     
   8.3000000000000018E-002     0.0000000000000000     
   8.6000000000000021E-002     0.0000000000000000     
   8.9000000000000024E-002     0.0000000000000000     
   9.2000000000000026E-002     0.0000000000000000     
   9.5000000000000029E-002     0.0000000000000000     
   9.8000000000000032E-002     0.0000000000000000     
  0.10100000000000003          0.0000000000000000     
  0.10400000000000004          0.0000000000000000     
  0.10700000000000004          0.0000000000000000     
  0.11000000000000004          0.0000000000000000     
  0.11300000000000004          0.0000000000000000     
  0.11600000000000005          0.0000000000000000     
  0.11900000000000005          0.0000000000000000     
  0.12200000000000005          0.0000000000000000     
  0.12500000000000006          0.0000000000000000     
  0.12800000000000006          0.0000000000000000     
  0.13100000000000006          0.0000000000000000     
  0.13400000000000006          0.0000000000000000     
  0.13700000000000007          0.0000000000000000     
  0.14000000000000007          0.0000000000000000     
  0.14300000000000007          0.0000000000000000     
  0.14600000000000007          0.0000000000000000     
  0.14900000000000008          0.0000000000000000     
  0.15200000000000008          0.0000000000000000     
  0.15500000000000008          0.0000000000000000     
  0.15800000000000008          0.0000000000000000     
  0.16100000000000009          0.0000000000000000     
  0.16400000000000009          0.0000000000000000     
  0.16700000000000009          0.0000000000000000     
  0.17000000000000010          0.0000000000000000     
  0.17300000000000010          0.0000000000000000     
  0.17600000000000010          0.0000000000000000     
  0.17899999999999999          0.0000000000000000     
  0.18200000000000000          0.0000000000000000     
  0.18500000000000000          0.0000000000000000     
  0.18800000000000000          0.0000000000000000     
  0.19100000000000000          0.0000000000000000     
  0.19400000000000001          0.0000000000000000     
  0.19700000000000001          0.0000000000000000     
  0.20000000000000001          0.0000000000000000     
  0.20300000000000001          0.0000000000000000     
  0.20600000000000002          0.0000000000000000     
  0.20900000000000002          0.0000000000000000     
  0.21200000000000002          0.0000000000000000     
  0.21500000000000002          0.0000000000000000     
  0.21800000000000003          0.0000000000000000     
  0.22100000000000003          0.0000000000000000     
  0.22400000000000003          0.0000000000000000     
  0.22700000000000004          0.0000000000000000     
  0.23000000000000004          0.0000000000000000     
  0.23300000000000004          0.0000000000000000     
  0.23600000000000004          0.0000000000000000     
  0.23900000000000005          0.0000000000000000     
  0.24200000000000005          0.0000000000000000     
  0.24500000000000005          0.0000000000000000     
  0.24800000000000005          0.0000000000000000     
  0.25100000000000006         -1.3270330625155926E-041
  0.25400000000000006         -1.4233734671891879E-041
  0.25700000000000006          0.0000000000000000     
  0.26000000000000006          1.6409050218015046E-041
  0.26300000000000007         -2.6532095220365962E-041
  0.26600000000000007          1.4401315106431215E-040
  0.26900000000000007          1.6650582871071224E-040
  0.27200000000000008          1.9691420454143324E-040
  0.27500000000000008          1.2429326379736723E-039
  0.27800000000000008         -8.2351807715843980E-041
  0.28100000000000008         -2.7262298403247451E-039
  0.28400000000000009         -6.3705119192880657E-039
  0.28700000000000009         -7.4441508905444858E-039
  0.29000000000000009         -4.3848157956863097E-039
  0.29300000000000009          1.2206655354813878E-038
  0.29600000000000010          2.8673243677054662E-038
  0.29900000000000010          4.0766641949427514E-038
  0.30200000000000010          3.8962624353043070E-038
  0.30499999999999999          6.3445791531882041E-040
  0.30800000000000000         -5.5357801867457170E-038
  0.31100000000000000         -1.3932459471987040E-037
  0.31400000000000000         -2.0833829965399054E-037
  0.31700000000000000         -2.0221967908006793E-037
  0.32000000000000001         -7.2180975496511851E-038
  0.32300000000000001          2.1720840017718071E-037
  0.32600000000000001          6.2006682287975607E-037
  0.32900000000000001          9.9194057164343815E-037
  0.33200000000000002          1.0932991835938084E-036
  0.33500000000000002          6.4905997850015071E-037
  0.33800000000000002         -5.2073991171754372E-037
  0.34100000000000003         -2.3384853098712957E-036
  0.34400000000000003         -4.3154844568895273E-036
  0.34700000000000003         -5.5161995471831174E-036
  0.35000000000000003         -4.7177977857143734E-036
  0.35300000000000004         -8.3743412706420856E-037
  0.35600000000000004          6.4243661851864031E-036
  0.35900000000000004          1.5885595085819979E-035
  0.36200000000000004          2.4433509437088379E-035
  0.36500000000000005          2.7209232586728201E-035
  0.36800000000000005          1.8748215875374593E-035
  0.37100000000000005         -4.8477430923370612E-036
  0.37400000000000005         -4.3048056436380123E-035
  0.37700000000000006         -8.8201822554781872E-035
  0.38000000000000006         -1.2433961149180700E-034
  0.38300000000000006         -1.2893310060384530E-034
  0.38600000000000007         -7.8650864888008726E-035
  0.38900000000000007          4.0945791959171600E-035
  0.39200000000000007          2.2353175599740078E-034
  0.39500000000000007          4.3168271715294343E-034
  0.39800000000000008          5.9332871108407638E-034
  0.40100000000000008          6.1044604572807305E-034
  0.40400000000000008          3.8359304527940212E-034
  0.40700000000000008         -1.4844032832321438E-034
  0.41000000000000009         -9.6100698125640586E-034
  0.41300000000000009         -1.9022668236742853E-033
  0.41600000000000009         -2.6778498837255371E-033
  0.41900000000000009         -2.8819739333873736E-033
  0.42200000000000010         -2.0889854076726184E-033
  0.42500000000000010         -4.0110052551595237E-036
  0.42800000000000010          3.3512482053508013E-033
  0.43100000000000011          7.4672910916818026E-033
  0.43400000000000000          1.1260688521418339E-032
  0.43700000000000000          1.3149613775261124E-032
  0.44000000000000000          1.1349527590144632E-032
  0.44300000000000000          4.3998649599000359E-033
  0.44600000000000001         -8.1432862197932843E-033
  0.44900000000000001         -2.5003547626317365E-032
  0.45200000000000001         -4.2706046475563925E-032
  0.45500000000000002         -5.5603081992046586E-032
  0.45800000000000002         -5.6648586183565687E-032
  0.46100000000000002         -3.9037961390709077E-032
  0.46400000000000002          1.4001034353843927E-033
  0.46700000000000003          6.3473559162291400E-032
  0.47000000000000003          1.3828092417453277E-031
  0.47300000000000003          2.0818896980579677E-031
  0.47600000000000003          2.4810085111451690E-031
  0.47900000000000004          2.2970631782692514E-031
  0.48200000000000004          1.2879656765133887E-031
  0.48500000000000004         -6.5174105235922044E-032
  0.48800000000000004         -3.3918493630283589E-031
  0.49100000000000005         -6.4924516643248228E-031
  0.49400000000000005         -9.1888160761122128E-031
  0.49700000000000005         -1.0466677370874553E-030
  0.50000000000000000         -9.2464230344573672E-031
  0.50300000000000011         -4.6709703990871507E-031
  0.50600000000000001          3.5398841572876266E-031
  0.50900000000000012          1.4742105565816042E-030
  0.51200000000000001          2.7129301409249371E-030
  0.51500000000000012          3.7718802304995858E-030
  0.51800000000000002          4.2663466245502469E-030
  0.52100000000000013          3.7941633583407328E-030
  0.52400000000000002          2.0395828218700664E-030
  0.52700000000000014         -1.1017076942551150E-030
  0.53000000000000003         -5.4015772841063863E-030
  0.53300000000000014         -1.0216732640186664E-029
  0.53600000000000003         -1.4482255174974260E-029
  0.53900000000000015         -1.6814423096563306E-029
  0.54200000000000004         -1.5740269693210928E-029
  0.54500000000000015         -1.0045300702708384E-029
  0.54800000000000004          8.0324362536815174E-031
  0.55100000000000016          1.6236169986656942E-029
  0.55400000000000005          3.4272909563383086E-029
  0.55700000000000016          5.1445383730058846E-029
  0.56000000000000005          6.3063977863459087E-029
  0.56299999999999994          6.3892348859604832E-029
  0.56600000000000006          4.9221812295733424E-029
  0.56899999999999995          1.6234267506337681E-029
  0.57200000000000006         -3.4567532462783065E-029
  0.57499999999999996         -9.8180441854344068E-029
  0.57800000000000007         -1.6454888075390621E-028
  0.58099999999999996         -2.1899935795227585E-028
  0.58400000000000007         -2.4392511968058359E-028
  0.58699999999999997         -2.2177820057133919E-028
  0.59000000000000008         -1.3915614614546826E-028
  0.59299999999999997          8.5705786528951916E-030
  0.59600000000000009          2.1293896710542783E-028
  0.59899999999999998          4.4947559225757689E-028
  0.60200000000000009          6.7731910017967323E-028
  0.60500000000000020          8.4234694110440512E-028
  0.60800000000000010          8.8433491266527601E-028
  0.61100000000000021          7.4795052074923403E-028
  0.61400000000000010          3.9650981088166822E-028
  0.61700000000000021         -1.7352809264046518E-028
  0.62000000000000011         -9.2018668602012049E-028
  0.62300000000000022         -1.7490413717993801E-027
  0.62600000000000011         -2.5149510651902801E-027
  0.62900000000000000         -3.0349645022687390E-027
  0.63200000000000012         -3.1133201401423468E-027
  0.63500000000000001         -2.5773272686614817E-027
  0.63800000000000012         -1.3203062643661169E-027
  0.64100000000000001          6.5487196501672759E-028
  0.64400000000000013          3.2001032181777006E-027
  0.64700000000000002          6.0038299180380423E-027
  0.65000000000000013          8.5992287094842755E-027
  0.65300000000000002          1.0405340712015173E-026
  0.65600000000000014          1.0803137086672763E-026
  0.65900000000000003          9.2427849018521637E-027
  0.66200000000000014          5.3704763725702672E-027
  0.66500000000000004         -8.4266530832821770E-028
  0.66800000000000015         -8.9936591525078458E-027
  0.67100000000000004         -1.8188616717850898E-026
  0.67400000000000015         -2.7056926441669295E-026
  0.67700000000000005         -3.3856616266265755E-026
  0.68000000000000016         -3.6678534254760208E-026
  0.68300000000000005         -3.3740557774422013E-026
  0.68600000000000017         -2.3744958189507951E-026
  0.68900000000000006         -6.2535245510899587E-027
  0.69200000000000017          1.7980466585432457E-026
  0.69500000000000006          4.6792684151239875E-026
  0.69800000000000018          7.6569711272574688E-026
  0.70100000000000007          1.0244856086322906E-025
  0.70400000000000018          1.1878453608853823E-025
  0.70700000000000007          1.1988106184954382E-025
  0.71000000000000019          1.0093127073437197E-025
  0.71300000000000008          5.9070586994559933E-026
  0.71600000000000019         -5.5998355695421700E-027
  0.71900000000000008         -8.9194799420406613E-026
  0.72200000000000020         -1.8361604567893885E-025
  0.72500000000000009         -2.7668200266510237E-025
  0.72800000000000020         -3.5294352710952987E-025
  0.73100000000000009         -3.9522944147724958E-025
  0.73400000000000021         -3.8687856293527902E-025
  0.73700000000000010         -3.1447866278433536E-025
  0.74000000000000021         -1.7083176758232497E-025
  0.74300000000000010          4.2245550608048674E-026
  0.74600000000000022          3.1175955886626963E-025
  0.74900000000000011          6.1248690710432183E-025
  0.75200000000000022          9.0746978526776839E-025
  0.75500000000000012          1.1503840622783521E-024
  0.75800000000000001          1.2898891700487023E-024
  0.76100000000000012          1.2758494184008332E-024
  0.76400000000000001          1.0669675310662183E-024
  0.76700000000000013          6.3913736428294186E-025
  0.77000000000000002         -6.5116558988049262E-027
  0.77300000000000013         -8.3708732887545668E-025
  0.77600000000000002         -1.7842083726192155E-024
  0.77900000000000014         -2.7442858224858955E-024
  0.78200000000000003         -3.5837461327837749E-024
  0.78500000000000014         -4.1498124327886509E-024
  0.78800000000000003         -4.2866309798833813E-024
  0.79100000000000015         -3.8559451013978479E-024
  0.79400000000000004         -2.7607253295732557E-024
  0.79700000000000015         -9.6926982422527741E-025
  0.80000000000000004          1.4633738505155208E-024
  0.80300000000000016          4.3800338242110425E-024
  0.80600000000000005          7.5156744657947932E-024
  0.80900000000000016          1.0504593633395181E-023
  0.81200000000000006          1.2902604600517974E-023
  0.81500000000000017          1.4225233235384124E-023
  0.81800000000000006          1.4001065420699512E-023
  0.82100000000000017          1.1836862489649577E-023
  0.82400000000000007          7.4894096884660210E-024
  0.82700000000000018          9.3624162919785586E-025
  0.83000000000000007         -7.5637314884556308E-024
  0.83300000000000018         -1.7430159867615718E-023
  0.83600000000000008         -2.7751802197661809E-023
  0.83900000000000019         -3.7316850416317351E-023
  0.84200000000000008         -4.4688297988576897E-023
  0.84500000000000020         -4.8327705532580008E-023
  0.84800000000000009         -4.6762335693049144E-023
  0.85100000000000020         -3.8787149174554977E-023
  0.85400000000000009         -2.3684368872905179E-023
  0.85700000000000021         -1.4391882249757256E-024
  0.86000000000000010          2.7077365595598546E-023
  0.86300000000000021          5.9987100913492142E-023
  0.86600000000000010          9.4376554322731273E-023
  0.86900000000000022          1.2638625206230698E-022
  0.87200000000000011          1.5143884041044935E-022
  0.87500000000000022          1.6460971856341783E-022
  0.87800000000000011          1.6113232316518337E-022
  0.88100000000000001          1.3701238235583907E-022
  0.88400000000000012          8.9701039991435578E-023
  0.88700000000000001          1.8767935734957627E-023
  0.89000000000000012         -7.3510133652844680E-023
  0.89300000000000002         -1.8173226168085991E-022
  0.89600000000000013         -2.9721790704415532E-022
  0.89900000000000002         -4.0819517362920140E-022
  0.90200000000000014         -5.0039311324361289E-022
  0.90500000000000003         -5.5807177586073419E-022
  0.90800000000000014         -5.6547060102284373E-022
  0.91100000000000003         -5.0862053071738789E-022
  0.91400000000000015         -3.7739245454638247E-022
  0.91700000000000004         -1.6761344779299853E-022
  0.92000000000000015          1.1696990274039986E-022
  0.92300000000000004          4.6314329944330589E-022
  0.92600000000000016          8.4735878941983191E-022
  0.92900000000000005          1.2358095871146439E-021
  0.93200000000000016          1.5856696165851623E-021
  0.93500000000000005          1.8476175068913409E-021
  0.93800000000000017          1.9697168128348929E-021
  0.94100000000000006          1.9024930920239774E-021
  0.94400000000000017          1.6049809731106231E-021
  0.94700000000000006          1.0513170766869882E-021
  0.95000000000000018          2.3725843770239720E-022
  0.95300000000000007         -8.1403464113568966E-022
  0.95600000000000018         -2.0478154988858319E-021
  0.95900000000000007         -3.3759046301892369E-021
  0.96200000000000019         -4.6780154713408947E-021
  0.96500000000000008         -5.8067617916984479E-021
  0.96800000000000019         -6.5968166862436055E-021
  0.97100000000000009         -6.8780369870028863E-021
  0.97400000000000020         -6.4922923107926400E-021
  0.97700000000000009         -5.3130761419629453E-021
  0.98000000000000020         -3.2664044336130224E-021
  0.98300000000000010         -3.5120301058474109E-022
  0.98600000000000021          3.3429803815211623E-021
  0.98900000000000010          7.6234010280405925E-021
  0.99200000000000021          1.2189257855113216E-020
  0.99500000000000011          1.6636709783822612E-020
  0.99800000000000022          2.0475562189398515E-020
   1.0010000000000001          2.3158726802542127E-020
   1.0040000000000002          2.4124229455778741E-020
   1.0070000000000001          2.2848684769187773E-020
   1.0100000000000000          1.8909324108837208E-020
   1.0130000000000001          1.2050406653038154E-020
   1.0160000000000000          2.2486748597052618E-021
   1.0190000000000001         -1.0229548854097823E-020
   1.0220000000000000         -2.4786131110630080E-020
   1.0250000000000001         -4.0472150920377868E-020
   1.0280000000000000         -5.5998589241814007E-020
   1.0310000000000001         -6.9783616412237195E-020
   1.0340000000000000         -8.0038567034196112E-020
   1.0370000000000001         -8.4893997731796825E-020
   1.0400000000000000         -8.2562397255950222E-020
   1.0430000000000001         -7.1531512840359848E-020
   1.0460000000000000         -5.0773671852319995E-020
   1.0490000000000002         -1.9958005285256025E-020
   1.0520000000000000          2.0355871620316454E-020
   1.0550000000000002          6.8564059407154046E-020
   1.0580000000000001          1.2192953851978550E-019
   1.0610000000000002          1.7657869421489495E-019
   1.0640000000000001          2.2760515163645637E-019
   1.0670000000000002          2.6929280860236618E-019
   1.0700000000000001          2.9546535352151724E-019
   1.0730000000000002          2.9995787804212465E-019
   1.0760000000000001          2.7719416822874304E-019
   1.0790000000000002          2.2283667457113207E-019
   1.0820000000000001          1.3447168513292886E-019
   1.0850000000000002          1.2272441893045502E-020
   1.0880000000000001         -1.4042800846400503E-019
   1.0910000000000002         -3.1672396795529545E-019
   1.0940000000000001         -5.0595164537078035E-019
   1.0970000000000002         -6.9380576416183801E-019
