 -0.39999999999999997          0.0000000000000000     
 -0.39699999999999996          0.0000000000000000     
 -0.39399999999999996          0.0000000000000000     
 -0.39099999999999996          0.0000000000000000     
 -0.38799999999999996          0.0000000000000000     
 -0.38499999999999995          0.0000000000000000     
 -0.38199999999999995          0.0000000000000000     
 -0.37899999999999995          0.0000000000000000     
 -0.37599999999999995          0.0000000000000000     
 -0.37299999999999994          0.0000000000000000     
 -0.37000000000000000          0.0000000000000000     
 -0.36699999999999999          0.0000000000000000     
 -0.36399999999999999          0.0000000000000000     
 -0.36099999999999999          0.0000000000000000     
 -0.35799999999999998          0.0000000000000000     
 -0.35499999999999998          0.0000000000000000     
 -0.35199999999999998          0.0000000000000000     
 -0.34899999999999998          0.0000000000000000     
 -0.34599999999999997          0.0000000000000000     
 -0.34299999999999997          0.0000000000000000     
 -0.33999999999999997          0.0000000000000000     
 -0.33699999999999997          0.0000000000000000     
 -0.33399999999999996          0.0000000000000000     
 -0.33099999999999996          0.0000000000000000     
 -0.32799999999999996          0.0000000000000000     
 -0.32499999999999996          0.0000000000000000     
 -0.32199999999999995          0.0000000000000000     
 -0.31899999999999995          0.0000000000000000     
 -0.31599999999999995          0.0000000000000000     
 -0.31299999999999994          0.0000000000000000     
 -0.30999999999999994          0.0000000000000000     
 -0.30699999999999994          0.0000000000000000     
 -0.30399999999999994          0.0000000000000000     
 -0.30099999999999993          0.0000000000000000     
 -0.29799999999999993          0.0000000000000000     
 -0.29499999999999998          0.0000000000000000     
 -0.29199999999999998          0.0000000000000000     
 -0.28899999999999998          0.0000000000000000     
 -0.28599999999999998          0.0000000000000000     
 -0.28299999999999997          0.0000000000000000     
 -0.27999999999999997          0.0000000000000000     
 -0.27699999999999997          0.0000000000000000     
 -0.27399999999999997          0.0000000000000000     
 -0.27099999999999996          0.0000000000000000     
 -0.26799999999999996          0.0000000000000000     
 -0.26499999999999996          0.0000000000000000     
 -0.26199999999999996          0.0000000000000000     
 -0.25899999999999995          0.0000000000000000     
 -0.25599999999999995          0.0000000000000000     
 -0.25300000000000000          0.0000000000000000     
 -0.24999999999999997          0.0000000000000000     
 -0.24699999999999997          0.0000000000000000     
 -0.24399999999999997          0.0000000000000000     
 -0.24099999999999996          0.0000000000000000     
 -0.23799999999999996          0.0000000000000000     
 -0.23499999999999996          0.0000000000000000     
 -0.23199999999999996          0.0000000000000000     
 -0.22899999999999995          0.0000000000000000     
 -0.22599999999999995          0.0000000000000000     
 -0.22299999999999998          0.0000000000000000     
 -0.21999999999999997          0.0000000000000000     
 -0.21699999999999997          0.0000000000000000     
 -0.21399999999999997          0.0000000000000000     
 -0.21099999999999997          0.0000000000000000     
 -0.20799999999999996          0.0000000000000000     
 -0.20499999999999996          0.0000000000000000     
 -0.20199999999999996          0.0000000000000000     
 -0.19899999999999995          0.0000000000000000     
 -0.19599999999999995          0.0000000000000000     
 -0.19299999999999995          0.0000000000000000     
 -0.18999999999999997          0.0000000000000000     
 -0.18699999999999997          0.0000000000000000     
 -0.18399999999999997          0.0000000000000000     
 -0.18099999999999997          0.0000000000000000     
 -0.17799999999999996          0.0000000000000000     
 -0.17499999999999996          0.0000000000000000     
 -0.17199999999999996          0.0000000000000000     
 -0.16899999999999996          0.0000000000000000     
 -0.16599999999999995          0.0000000000000000     
 -0.16299999999999995          0.0000000000000000     
 -0.15999999999999998          0.0000000000000000     
 -0.15699999999999997          0.0000000000000000     
 -0.15399999999999997          0.0000000000000000     
 -0.15099999999999997          0.0000000000000000     
 -0.14799999999999996          0.0000000000000000     
 -0.14499999999999996          0.0000000000000000     
 -0.14199999999999996          0.0000000000000000     
 -0.13899999999999996          0.0000000000000000     
 -0.13599999999999995          0.0000000000000000     
 -0.13299999999999995          0.0000000000000000     
 -0.12999999999999995          0.0000000000000000     
 -0.12699999999999995          0.0000000000000000     
 -0.12399999999999994          0.0000000000000000     
 -0.12099999999999994          0.0000000000000000     
 -0.11799999999999994          0.0000000000000000     
 -0.11499999999999994          0.0000000000000000     
 -0.11199999999999993          0.0000000000000000     
 -0.10899999999999999          0.0000000000000000     
 -0.10599999999999998          0.0000000000000000     
 -0.10299999999999998          0.0000000000000000     
  -9.9999999999999978E-002     0.0000000000000000     
  -9.6999999999999975E-002     0.0000000000000000     
  -9.3999999999999972E-002     0.0000000000000000     
  -9.0999999999999970E-002     0.0000000000000000     
  -8.7999999999999967E-002     0.0000000000000000     
  -8.4999999999999964E-002     0.0000000000000000     
  -8.1999999999999962E-002     0.0000000000000000     
  -7.8999999999999959E-002     0.0000000000000000     
  -7.5999999999999956E-002     0.0000000000000000     
  -7.2999999999999954E-002     0.0000000000000000     
  -6.9999999999999951E-002     0.0000000000000000     
  -6.6999999999999948E-002     0.0000000000000000     
  -6.3999999999999946E-002     0.0000000000000000     
  -6.0999999999999943E-002     0.0000000000000000     
  -5.7999999999999940E-002     0.0000000000000000     
  -5.4999999999999938E-002     0.0000000000000000     
  -5.1999999999999935E-002     0.0000000000000000     
  -4.8999999999999932E-002     0.0000000000000000     
  -4.5999999999999985E-002     0.0000000000000000     
  -4.2999999999999983E-002     0.0000000000000000     
  -3.9999999999999980E-002     0.0000000000000000     
  -3.6999999999999977E-002     0.0000000000000000     
  -3.3999999999999975E-002     0.0000000000000000     
  -3.0999999999999972E-002     0.0000000000000000     
  -2.7999999999999969E-002     0.0000000000000000     
  -2.4999999999999967E-002     0.0000000000000000     
  -2.1999999999999964E-002     0.0000000000000000     
  -1.8999999999999961E-002     0.0000000000000000     
  -1.5999999999999959E-002     0.0000000000000000     
  -1.2999999999999956E-002     0.0000000000000000     
  -9.9999999999999534E-003     0.0000000000000000     
  -6.9999999999999507E-003     0.0000000000000000     
  -3.9999999999999480E-003     0.0000000000000000     
  -9.9999999999994538E-004     0.0000000000000000     
   2.0000000000000573E-003     0.0000000000000000     
   5.0000000000000600E-003     0.0000000000000000     
   8.0000000000000626E-003     0.0000000000000000     
   1.1000000000000065E-002     0.0000000000000000     
   1.4000000000000068E-002     0.0000000000000000     
   1.7000000000000015E-002     0.0000000000000000     
   2.0000000000000018E-002     0.0000000000000000     
   2.3000000000000020E-002     0.0000000000000000     
   2.6000000000000023E-002     0.0000000000000000     
   2.9000000000000026E-002     0.0000000000000000     
   3.2000000000000028E-002     0.0000000000000000     
   3.5000000000000031E-002     0.0000000000000000     
   3.8000000000000034E-002     0.0000000000000000     
   4.1000000000000036E-002     0.0000000000000000     
   4.4000000000000039E-002     0.0000000000000000     
   4.7000000000000042E-002     0.0000000000000000     
   5.0000000000000044E-002     0.0000000000000000     
   5.3000000000000047E-002     0.0000000000000000     
   5.6000000000000050E-002     0.0000000000000000     
   5.9000000000000052E-002     0.0000000000000000     
   6.2000000000000055E-002     0.0000000000000000     
   6.5000000000000058E-002     0.0000000000000000     
   6.8000000000000060E-002     0.0000000000000000     
   7.1000000000000063E-002     0.0000000000000000     
   7.4000000000000066E-002     0.0000000000000000     
   7.7000000000000068E-002     0.0000000000000000     
   8.0000000000000016E-002     0.0000000000000000     
   8.3000000000000018E-002     0.0000000000000000     
   8.6000000000000021E-002     0.0000000000000000     
   8.9000000000000024E-002     0.0000000000000000     
   9.2000000000000026E-002     0.0000000000000000     
   9.5000000000000029E-002     0.0000000000000000     
   9.8000000000000032E-002     0.0000000000000000     
  0.10100000000000003          0.0000000000000000     
  0.10400000000000004          0.0000000000000000     
  0.10700000000000004          0.0000000000000000     
  0.11000000000000004          0.0000000000000000     
  0.11300000000000004          0.0000000000000000     
  0.11600000000000005          0.0000000000000000     
  0.11900000000000005          0.0000000000000000     
  0.12200000000000005          0.0000000000000000     
  0.12500000000000006          0.0000000000000000     
  0.12800000000000006          0.0000000000000000     
  0.13100000000000006          0.0000000000000000     
  0.13400000000000006          0.0000000000000000     
  0.13700000000000007          0.0000000000000000     
  0.14000000000000007          0.0000000000000000     
  0.14300000000000007          0.0000000000000000     
  0.14600000000000007          0.0000000000000000     
  0.14900000000000008          0.0000000000000000     
  0.15200000000000008          0.0000000000000000     
  0.15500000000000008          0.0000000000000000     
  0.15800000000000008          0.0000000000000000     
  0.16100000000000009          0.0000000000000000     
  0.16400000000000009          0.0000000000000000     
  0.16700000000000009          0.0000000000000000     
  0.17000000000000010          0.0000000000000000     
  0.17300000000000010          0.0000000000000000     
  0.17600000000000010          0.0000000000000000     
  0.17899999999999999          0.0000000000000000     
  0.18200000000000000          0.0000000000000000     
  0.18500000000000000          0.0000000000000000     
  0.18800000000000000          0.0000000000000000     
  0.19100000000000000          0.0000000000000000     
  0.19400000000000001          0.0000000000000000     
  0.19700000000000001          0.0000000000000000     
  0.20000000000000001          0.0000000000000000     
  0.20300000000000001          0.0000000000000000     
  0.20600000000000002          0.0000000000000000     
  0.20900000000000002          0.0000000000000000     
  0.21200000000000002          0.0000000000000000     
  0.21500000000000002          0.0000000000000000     
  0.21800000000000003          0.0000000000000000     
  0.22100000000000003          0.0000000000000000     
  0.22400000000000003          0.0000000000000000     
  0.22700000000000004          0.0000000000000000     
  0.23000000000000004          0.0000000000000000     
  0.23300000000000004          0.0000000000000000     
  0.23600000000000004          0.0000000000000000     
  0.23900000000000005          0.0000000000000000     
  0.24200000000000005          0.0000000000000000     
  0.24500000000000005          0.0000000000000000     
  0.24800000000000005          0.0000000000000000     
  0.25100000000000006          0.0000000000000000     
  0.25400000000000006          0.0000000000000000     
  0.25700000000000006          0.0000000000000000     
  0.26000000000000006          0.0000000000000000     
  0.26300000000000007          0.0000000000000000     
  0.26600000000000007          0.0000000000000000     
  0.26900000000000007          0.0000000000000000     
  0.27200000000000008          0.0000000000000000     
  0.27500000000000008          0.0000000000000000     
  0.27800000000000008          0.0000000000000000     
  0.28100000000000008          0.0000000000000000     
  0.28400000000000009          0.0000000000000000     
  0.28700000000000009          0.0000000000000000     
  0.29000000000000009          0.0000000000000000     
  0.29300000000000009          0.0000000000000000     
  0.29600000000000010          0.0000000000000000     
  0.29900000000000010          0.0000000000000000     
  0.30200000000000010          0.0000000000000000     
  0.30499999999999999          0.0000000000000000     
  0.30800000000000000          0.0000000000000000     
  0.31100000000000000          0.0000000000000000     
  0.31400000000000000          0.0000000000000000     
  0.31700000000000000          0.0000000000000000     
  0.32000000000000001          0.0000000000000000     
  0.32300000000000001          0.0000000000000000     
  0.32600000000000001          0.0000000000000000     
  0.32900000000000001          0.0000000000000000     
  0.33200000000000002          0.0000000000000000     
  0.33500000000000002          0.0000000000000000     
  0.33800000000000002          0.0000000000000000     
  0.34100000000000003          0.0000000000000000     
  0.34400000000000003          0.0000000000000000     
  0.34700000000000003          0.0000000000000000     
  0.35000000000000003          0.0000000000000000     
  0.35300000000000004          0.0000000000000000     
  0.35600000000000004          0.0000000000000000     
  0.35900000000000004          0.0000000000000000     
  0.36200000000000004          0.0000000000000000     
  0.36500000000000005          0.0000000000000000     
  0.36800000000000005          0.0000000000000000     
  0.37100000000000005          0.0000000000000000     
  0.37400000000000005          0.0000000000000000     
  0.37700000000000006          0.0000000000000000     
  0.38000000000000006          0.0000000000000000     
  0.38300000000000006          0.0000000000000000     
  0.38600000000000007          0.0000000000000000     
  0.38900000000000007          0.0000000000000000     
  0.39200000000000007          0.0000000000000000     
  0.39500000000000007          0.0000000000000000     
  0.39800000000000008          0.0000000000000000     
  0.40100000000000008          0.0000000000000000     
  0.40400000000000008          0.0000000000000000     
  0.40700000000000008          0.0000000000000000     
  0.41000000000000009          0.0000000000000000     
  0.41300000000000009          0.0000000000000000     
  0.41600000000000009          0.0000000000000000     
  0.41900000000000009          0.0000000000000000     
  0.42200000000000010          0.0000000000000000     
  0.42500000000000010          0.0000000000000000     
  0.42800000000000010          0.0000000000000000     
  0.43100000000000011          0.0000000000000000     
  0.43400000000000000          0.0000000000000000     
  0.43700000000000000          0.0000000000000000     
  0.44000000000000000          0.0000000000000000     
  0.44300000000000000          0.0000000000000000     
  0.44600000000000001          0.0000000000000000     
  0.44900000000000001          0.0000000000000000     
  0.45200000000000001          0.0000000000000000     
  0.45500000000000002          0.0000000000000000     
  0.45800000000000002          0.0000000000000000     
  0.46100000000000002          0.0000000000000000     
  0.46400000000000002          0.0000000000000000     
  0.46700000000000003          0.0000000000000000     
  0.47000000000000003          0.0000000000000000     
  0.47300000000000003          0.0000000000000000     
  0.47600000000000003          0.0000000000000000     
  0.47900000000000004          0.0000000000000000     
  0.48200000000000004          0.0000000000000000     
  0.48500000000000004          0.0000000000000000     
  0.48800000000000004          0.0000000000000000     
  0.49100000000000005          0.0000000000000000     
  0.49400000000000005          0.0000000000000000     
  0.49700000000000005          0.0000000000000000     
  0.50000000000000000          0.0000000000000000     
  0.50300000000000011          0.0000000000000000     
  0.50600000000000001          0.0000000000000000     
  0.50900000000000012          0.0000000000000000     
  0.51200000000000001          0.0000000000000000     
  0.51500000000000012          0.0000000000000000     
  0.51800000000000002          0.0000000000000000     
  0.52100000000000013          0.0000000000000000     
  0.52400000000000002          0.0000000000000000     
  0.52700000000000014          0.0000000000000000     
  0.53000000000000003          0.0000000000000000     
  0.53300000000000014          0.0000000000000000     
  0.53600000000000003          0.0000000000000000     
  0.53900000000000015          0.0000000000000000     
  0.54200000000000004          0.0000000000000000     
  0.54500000000000015          0.0000000000000000     
  0.54800000000000004          0.0000000000000000     
  0.55100000000000016          0.0000000000000000     
  0.55400000000000005          0.0000000000000000     
  0.55700000000000016          0.0000000000000000     
  0.56000000000000005          0.0000000000000000     
  0.56299999999999994          0.0000000000000000     
  0.56600000000000006          0.0000000000000000     
  0.56899999999999995          0.0000000000000000     
  0.57200000000000006          0.0000000000000000     
  0.57499999999999996          0.0000000000000000     
  0.57800000000000007         -1.3599719008130216E-041
  0.58099999999999996         -2.4424364831003743E-041
  0.58400000000000007          3.8023391169800464E-041
  0.58699999999999997         -7.3688964531390037E-041
  0.59000000000000008         -1.1625386505752511E-040
  0.59299999999999997         -1.2605409262029054E-039
  0.59600000000000009         -1.4030941918139350E-039
  0.59899999999999998         -1.2797722454395035E-039
  0.60200000000000009         -2.6471005435318299E-040
  0.60500000000000020          6.5406565848089113E-040
  0.60800000000000010          1.7442228441550025E-039
  0.61100000000000021          3.0638566827861754E-039
  0.61400000000000010         -9.5626443599863376E-039
  0.61700000000000021         -1.3028421650442200E-038
  0.62000000000000011         -1.3524000933395002E-038
  0.62300000000000022         -1.1573147363359160E-038
  0.62600000000000011         -3.0554441761974230E-039
  0.62900000000000000          3.8937705266158814E-039
  0.63200000000000012          1.7040270105229701E-038
  0.63500000000000001          3.3105934159618550E-038
  0.63800000000000012          4.8080091736453999E-038
  0.64100000000000001          5.6593834498344010E-038
  0.64400000000000013          5.6105179495479410E-038
  0.64700000000000002          3.6787340306904068E-038
  0.65000000000000013         -7.3799050663865961E-040
  0.65300000000000002         -5.6815606440677787E-038
  0.65600000000000014         -1.2548432866115989E-037
  0.65900000000000003         -1.9446722024570713E-037
  0.66200000000000014         -2.4568621510105178E-037
  0.66500000000000004         -2.5684950071864895E-037
  0.66800000000000015         -2.0643455660537821E-037
  0.67100000000000004         -7.7558500855105088E-038
  0.67400000000000015          1.3337798676425561E-037
  0.67700000000000005          4.1080921928153503E-037
  0.68000000000000016          7.1496351690295074E-037
  0.68300000000000005          9.8097814366593202E-037
  0.68600000000000017          1.1239205579921436E-036
  0.68900000000000006          1.0510224044405546E-036
  0.69200000000000017          6.8131032245364168E-037
  0.69500000000000006         -2.9043769412675524E-038
  0.69800000000000018         -1.0595308882183529E-036
  0.70100000000000007         -2.3020333453665200E-036
  0.70400000000000018         -3.5487515443784959E-036
  0.70700000000000007         -4.4990649650453683E-036
  0.71000000000000019         -4.7917141798489595E-036
  0.71300000000000008         -4.0651517261381291E-036
  0.71600000000000019         -2.0434284960861216E-036
  0.71900000000000008          1.3619796098806872E-036
  0.72200000000000020          5.9517374162915895E-036
  0.72500000000000009          1.1163787979085271E-035
  0.72800000000000020          1.6051806724461334E-035
  0.73100000000000009          1.9343580052332940E-035
  0.73400000000000021          1.9598184093140796E-035
  0.73700000000000010          1.5465919821460627E-035
  0.74000000000000021          6.0329423638239989E-036
  0.74300000000000010         -8.7936703596858993E-036
  0.74600000000000022         -2.7930735258887581E-035
  0.74900000000000011         -4.8884925766630396E-035
  0.75200000000000022         -6.7739141419915900E-035
  0.75500000000000012         -7.9448471671935534E-035
  0.75800000000000001         -7.8500410162305285E-035
  0.76100000000000012         -5.9935434393980538E-035
  0.76400000000000001         -2.0644536501178020E-035
  0.76700000000000013          3.9231068097545505E-035
  0.77000000000000002          1.1506023476180657E-034
  0.77300000000000013          1.9696791832064985E-034
  0.77600000000000002          2.6990866616254028E-034
  0.77900000000000014          3.1486182989850163E-034
  0.78200000000000003          3.1131451512324007E-034
  0.78500000000000014          2.4098798299669335E-034
  0.78800000000000003          9.2490217261757097E-035
  0.79100000000000015         -1.3372763484519519E-034
  0.79400000000000004         -4.2102109562185168E-034
  0.79700000000000015         -7.3391813272878383E-034
  0.80000000000000004         -1.0183518267640291E-033
  0.80300000000000016         -1.2057452126089520E-033
  0.80600000000000005         -1.2214935133415805E-033
  0.80900000000000016         -9.9771121909415894E-034
  0.81200000000000006         -4.8920786971885714E-034
  0.81500000000000017          3.0933509704824033E-034
  0.81800000000000006          1.3479451427280328E-033
  0.82100000000000017          2.5113345454104093E-033
  0.82400000000000007          3.6180726586070243E-033
  0.82700000000000018          4.4322910518399481E-033
  0.83000000000000007          4.6899473948026113E-033
  0.83300000000000018          4.1395703984860210E-033
  0.83600000000000008          2.5946343425113460E-033
  0.83900000000000019         -8.4419789323681233E-036
  0.84200000000000008         -3.5557057975017407E-033
  0.84500000000000020         -7.7158572993945243E-033
  0.84800000000000009         -1.1927519901605872E-032
  0.85100000000000020         -1.5424903971656266E-032
  0.85400000000000009         -1.7309720081265411E-032
  0.85700000000000021         -1.6671324770907369E-032
  0.86000000000000010         -1.2748843850418835E-032
  0.86300000000000021         -5.1194986160765039E-033
  0.86600000000000010          6.1122882894935560E-033
  0.86900000000000022          2.0158750829482208E-032
  0.87200000000000011          3.5463794608476027E-032
  0.87500000000000022          4.9726924182036271E-032
  0.87800000000000011          6.0066071243233593E-032
  0.88100000000000001          6.3334644384447631E-032
  0.88400000000000012          5.6585597212715155E-032
  0.88700000000000001          3.7648087958151930E-032
  0.89000000000000012          5.7520931878274780E-033
  0.89300000000000002         -3.7891007718857715E-032
  0.89600000000000013         -8.9664388934923266E-032
  0.89900000000000002         -1.4339783567953114E-031
  0.90200000000000014         -1.9060469399638834E-031
  0.90500000000000003         -2.2118074505832255E-031
  0.90800000000000014         -2.2458743588042935E-031
  0.91100000000000003         -1.9146960890628952E-031
  0.91400000000000015         -1.1557039286410062E-031
  0.91700000000000004          4.2809274397527101E-033
  0.92000000000000015          1.6241067520379813E-031
  0.92300000000000004          3.4512397811495450E-031
  0.92600000000000016          5.3046914295271790E-031
  0.92900000000000005          6.8925836667104214E-031
  0.93200000000000016          7.8754553298320166E-031
  0.93500000000000005          7.9059380431478918E-031
  0.93800000000000017          6.6814048004978575E-031
  0.94100000000000006          4.0050665936537567E-031
  0.94400000000000017         -1.5153551397080277E-032
  0.94700000000000006         -5.5939315547992519E-031
  0.95000000000000018         -1.1868670240923861E-030
  0.95300000000000007         -1.8256589941620900E-030
  0.95600000000000018         -2.3804751700305458E-030
  0.95900000000000007         -2.7403105196192524E-030
  0.96200000000000019         -2.7906972421897510E-030
  0.96500000000000008         -2.4299802068849038E-030
  0.96800000000000019         -1.5883295117359027E-030
  0.97100000000000009         -2.4743483559157329E-031
  0.97400000000000020          1.5418343450744016E-030
  0.97700000000000009          3.6469494139368894E-030
  0.98000000000000020          5.8496927587185740E-030
  0.98300000000000010          7.8534749523703989E-030
  0.98600000000000021          9.3040947599144735E-030
  0.98900000000000010          9.8246370672986609E-030
  0.99200000000000021          9.0634206429268023E-030
  0.99500000000000011          6.7517296206273450E-030
  0.99800000000000022          2.7658539518825805E-030
   1.0010000000000001         -2.8141264549313502E-030
   1.0040000000000002         -9.6579632595054184E-030
   1.0070000000000001         -1.7161075827813709E-029
   1.0100000000000000         -2.4452039425979513E-029
   1.0130000000000001         -3.0439207164955565E-029
   1.0160000000000000         -3.3900714298533460E-029
   1.0190000000000001         -3.3617241485803999E-029
   1.0220000000000000         -2.8540925508464477E-029
   1.0250000000000001         -1.7987337910334295E-029
   1.0280000000000000         -1.8306284046685414E-030
   1.0310000000000001          1.9323434685047942E-029
   1.0340000000000000          4.4015847441993087E-029
   1.0370000000000001          6.9894065077974097E-029
   1.0400000000000000          9.3780299665716422E-029
   1.0430000000000001          1.1186841591011259E-028
   1.0460000000000000          1.2005802687198717E-028
   1.0490000000000002          1.1441812200308371E-028
   1.0520000000000000          9.1754723303084969E-029
   1.0550000000000002          5.0235717752745397E-029
   1.0580000000000001         -9.9928449040150351E-030
   1.0610000000000002         -8.6281330488719780E-029
   1.0640000000000001         -1.7313353049125418E-028
   1.0670000000000002         -2.6213947974710485E-028
   1.0700000000000001         -3.4226521846935028E-028
   1.0730000000000002         -4.0055777207029850E-028
   1.0760000000000001         -4.2328583647965255E-028
   1.0790000000000002         -3.9748639292890981E-028
   1.0820000000000001         -3.1282929260036046E-028
   1.0850000000000002         -1.6364991978941253E-028
   1.0880000000000001          4.9062139752663412E-029
   1.0910000000000002          3.1597805682229439E-028
   1.0940000000000001          6.1833812059453653E-028
   1.0970000000000002          9.2774852084570807E-028
