 -0.39999999999999997          0.0000000000000000     
 -0.39699999999999996          0.0000000000000000     
 -0.39399999999999996          0.0000000000000000     
 -0.39099999999999996          0.0000000000000000     
 -0.38799999999999996          0.0000000000000000     
 -0.38499999999999995          0.0000000000000000     
 -0.38199999999999995          0.0000000000000000     
 -0.37899999999999995          0.0000000000000000     
 -0.37599999999999995          0.0000000000000000     
 -0.37299999999999994          0.0000000000000000     
 -0.37000000000000000          0.0000000000000000     
 -0.36699999999999999          0.0000000000000000     
 -0.36399999999999999          0.0000000000000000     
 -0.36099999999999999          0.0000000000000000     
 -0.35799999999999998          0.0000000000000000     
 -0.35499999999999998          0.0000000000000000     
 -0.35199999999999998          0.0000000000000000     
 -0.34899999999999998          0.0000000000000000     
 -0.34599999999999997          0.0000000000000000     
 -0.34299999999999997          0.0000000000000000     
 -0.33999999999999997          0.0000000000000000     
 -0.33699999999999997          0.0000000000000000     
 -0.33399999999999996          0.0000000000000000     
 -0.33099999999999996          0.0000000000000000     
 -0.32799999999999996          0.0000000000000000     
 -0.32499999999999996          0.0000000000000000     
 -0.32199999999999995          1.4276004052251641E-040
 -0.31899999999999995          0.0000000000000000     
 -0.31599999999999995         -3.1126286155785867E-039
 -0.31299999999999994          1.4786644201957872E-038
 -0.30999999999999994         -2.6105540839617441E-039
 -0.30699999999999994         -1.4479830639192473E-037
 -0.30399999999999994          4.1393274190821469E-037
 -0.30099999999999993          3.4900651277814624E-037
 -0.29799999999999993         -4.7081458401519570E-036
 -0.29499999999999998          7.2912270562676119E-036
 -0.29199999999999998          2.4379314685673656E-035
 -0.28899999999999998         -1.0086032448637538E-034
 -0.28599999999999998         -1.5363952550304029E-035
 -0.28299999999999997          7.3160735788283879E-034
 -0.27999999999999997         -8.8274434146990615E-034
 -0.27699999999999997         -3.5931195845463950E-033
 -0.27399999999999997          9.3682032641126438E-033
 -0.27099999999999996          1.1611154763039934E-032
 -0.26799999999999996         -6.3016057188223875E-032
 -0.26499999999999996         -1.1090568532938013E-032
 -0.26199999999999996          3.3408254542056601E-031
 -0.25899999999999995         -1.6347652971085141E-031
 -0.25599999999999995         -1.5065379910401387E-030
 -0.25300000000000000          1.5303636246601173E-030
 -0.24999999999999997          6.0273989872545172E-030
 -0.24699999999999997         -8.9419912589056006E-030
 -0.24399999999999997         -2.2068266522524087E-029
 -0.24099999999999996          4.2119247913584421E-029
 -0.23799999999999996          7.6010448752535509E-029
 -0.23499999999999996         -1.7200966004403333E-028
 -0.23199999999999996         -2.5269693678774770E-028
 -0.22899999999999995          6.2771794352827367E-028
 -0.22599999999999995          8.2754471836803871E-028
 -0.22299999999999998         -2.0722016378732666E-027
 -0.21999999999999997         -2.6930214629108692E-027
 -0.21699999999999997          6.1919730127936233E-027
 -0.21399999999999997          8.6506582885269124E-027
 -0.21099999999999997         -1.6569129114718942E-026
 -0.20799999999999996         -2.6900259228160578E-026
 -0.20499999999999996          3.8624813666889229E-026
 -0.20199999999999996          7.8863317773851192E-026
 -0.19899999999999995         -7.3431509215723510E-026
 -0.19599999999999995         -2.1146409419350278E-025
 -0.19299999999999995          9.1528918922015281E-026
 -0.18999999999999997          4.9936367330239638E-025
 -0.18699999999999997          3.4362245442024546E-026
 -0.18399999999999997         -9.7629996049195013E-025
 -0.18099999999999997         -6.2569962532381157E-025
 -0.17799999999999996          1.3531522917671328E-024
 -0.17499999999999996          2.1303539743812734E-024
 -0.17199999999999996         -3.8991306307315447E-025
 -0.16899999999999996         -4.2461338990588392E-024
 -0.16599999999999995         -4.6210084106726570E-024
 -0.16299999999999995          3.1938019261406605E-024
 -0.15999999999999998          1.5792400533497912E-023
 -0.15699999999999997          1.2272256099910504E-023
 -0.15399999999999997         -2.4642683731240842E-023
 -0.15099999999999997         -5.7562680202701887E-023
 -0.14799999999999996         -7.5456678607744083E-024
 -0.14499999999999996          1.1839709441195867E-022
 -0.14199999999999996          1.5113612679349726E-022
 -0.13899999999999996         -6.8762241423012473E-023
 -0.13599999999999995         -3.9900957410776085E-022
 -0.13299999999999995         -3.7003115646750183E-022
 -0.12999999999999995          3.5413728392052140E-022
 -0.12699999999999995          1.2802946961331514E-021
 -0.12399999999999994          9.9297075761260053E-022
 -0.12099999999999994         -1.4170533136230232E-021
 -0.11799999999999994         -4.1145490234839292E-021
 -0.11499999999999994         -2.6820476916849454E-021
 -0.11199999999999993          4.9788202342237352E-021
 -0.10899999999999999          1.2720033675166853E-020
 -0.10599999999999998          7.8902581513252805E-021
 -0.10299999999999998         -1.5088365229087748E-020
  -9.9999999999999978E-002    -3.8954133522846457E-020
  -9.6999999999999975E-002    -2.6963108973003997E-020
  -9.3999999999999972E-002     4.0748248577360019E-020
  -9.0999999999999970E-002     1.1911461732794607E-019
  -8.7999999999999967E-002     9.9230603315579916E-020
  -8.4999999999999964E-002    -9.3728355201389635E-020
  -8.1999999999999962E-002    -3.5495927478310837E-019
  -7.8999999999999959E-002    -3.7053255703405743E-019
  -7.5999999999999956E-002     1.4328613867324884E-019
  -7.2999999999999954E-002     1.0054372108202417E-018
  -6.9999999999999951E-002     1.3490218554823827E-018
  -6.6999999999999948E-002     1.3008565452905646E-019
  -6.3999999999999946E-002    -2.5999578920681816E-018
  -6.0999999999999943E-002    -4.6282690015672316E-018
  -5.7999999999999940E-002    -2.3781779947343621E-018
  -5.4999999999999938E-002     5.6231674609749516E-018
  -5.1999999999999935E-002     1.4553740786116352E-017
  -4.8999999999999932E-002     1.3237492313853597E-017
  -4.5999999999999985E-002    -7.4935983985114790E-018
  -4.2999999999999983E-002    -4.0481189200205971E-017
  -3.9999999999999980E-002    -5.4747682372754068E-017
  -3.6999999999999977E-002    -1.1596118864898558E-017
  -3.3999999999999975E-002     9.2759440935915725E-017
  -3.0999999999999972E-002     1.8646461811864248E-016
  -2.7999999999999969E-002     1.3744437983093547E-016
  -2.4999999999999967E-002    -1.3887830716940960E-016
  -2.1999999999999964E-002    -5.2489425224245265E-016
  -1.8999999999999961E-002    -6.4734136546363982E-016
  -1.5999999999999959E-002    -8.9251296832299905E-017
  -1.2999999999999956E-002     1.1401466402479859E-015
  -9.9999999999999534E-003     2.2066243883619216E-015
  -6.9999999999999507E-003     1.6699234115340863E-015
  -3.9999999999999480E-003    -1.3730995984668609E-015
  -9.9999999999994538E-004    -5.7305399146075072E-015
   2.0000000000000573E-003    -7.5851140955021454E-015
   5.0000000000000600E-003    -2.5029573987365624E-015
   8.0000000000000626E-003     1.0102195141387124E-014
   1.1000000000000065E-002     2.2957305590046478E-014
   1.4000000000000068E-002     2.2175979057487239E-014
   1.7000000000000015E-002    -3.2783472693927292E-015
   2.0000000000000018E-002    -4.7438931518319020E-014
   2.3000000000000020E-002    -7.9740014135069276E-014
   2.6000000000000023E-002    -5.6969928554381186E-014
   2.9000000000000026E-002     4.2617650732073780E-014
   3.2000000000000028E-002     1.8094119500159575E-013
   3.5000000000000031E-002     2.5243988200365803E-013
   3.8000000000000034E-002     1.3647614908850862E-013
   4.1000000000000036E-002    -1.9866021592897707E-013
   4.4000000000000039E-002    -6.0307889609522764E-013
   4.7000000000000042E-002    -7.5721727618948241E-013
   5.0000000000000044E-002    -3.4507348420131182E-013
   5.3000000000000047E-002     6.6428869784379212E-013
   5.6000000000000050E-002     1.8068645077650748E-012
   5.9000000000000052E-002     2.2077231372924504E-012
   6.2000000000000055E-002     1.0573303302598697E-012
   6.5000000000000058E-002    -1.6929039849456102E-012
   6.8000000000000060E-002    -4.8571302229327117E-012
   7.1000000000000063E-002    -6.2508377940817368E-012
   7.4000000000000066E-002    -3.8084930508016650E-012
   7.7000000000000068E-002     2.8330756783053485E-012
   8.0000000000000016E-002     1.1231159380367818E-011
   8.3000000000000018E-002     1.6511392777205894E-011
   8.6000000000000021E-002     1.3574733840009400E-011
   8.9000000000000024E-002     3.6432620059990199E-013
   9.2000000000000026E-002    -1.9569986538642239E-011
   9.5000000000000029E-002    -3.7104724108524474E-011
   9.8000000000000032E-002    -4.1003993837203365E-011
  0.10100000000000003         -2.3741043782738080E-011
  0.10400000000000004          1.3120722614268243E-011
  0.10700000000000004          5.7230212164199512E-011
  0.11000000000000004          8.9270235051387722E-011
  0.11300000000000004          9.1336732332540312E-011
  0.11600000000000005          5.6115498961712203E-011
  0.11900000000000005         -8.0703834535946436E-012
  0.12200000000000005         -7.9827306968754299E-011
  0.12500000000000006         -1.3468417113272938E-010
  0.12800000000000006         -1.5811383952939684E-010
  0.13100000000000006         -1.5474966442368359E-010
  0.13400000000000006         -1.4798527552465338E-010
  0.13700000000000007         -1.6868355413278720E-010
  0.14000000000000007         -2.3779042941003019E-010
  0.14300000000000007         -3.5200348235989424E-010
  0.14600000000000007         -4.8142364872452958E-010
  0.14900000000000008         -5.8254561114647461E-010
  0.15200000000000008         -6.2141894033476014E-010
  0.15500000000000008         -5.9497414095748906E-010
  0.15800000000000008         -5.3788368215495631E-010
  0.16100000000000009         -5.0930833081574461E-010
  0.16400000000000009         -5.6526641214334097E-010
  0.16700000000000009         -7.3154652235068520E-010
  0.17000000000000010         -9.9276974019188683E-010
  0.17300000000000010         -1.3043154859550368E-009
  0.17600000000000010         -1.6198288739064410E-009
  0.17899999999999999         -1.9174045229485741E-009
  0.18200000000000000         -2.2084568788426050E-009
  0.18500000000000000         -2.5251115820616490E-009
  0.18800000000000000         -2.8967334117068689E-009
  0.19100000000000000         -3.3332758950269896E-009
  0.19400000000000001         -3.8274950932568236E-009
  0.19700000000000001         -4.3733840762886764E-009
  0.20000000000000001         -4.9852037327462144E-009
  0.20300000000000001         -5.7006838229420836E-009
  0.20600000000000002         -6.5641628939573272E-009
  0.20900000000000002         -7.6020881605066579E-009
  0.21200000000000002         -8.8097213131879089E-009
  0.21500000000000002         -1.0160746251733496E-008
  0.21800000000000003         -1.1633158721717554E-008
  0.22100000000000003         -1.3231578946769773E-008
  0.22400000000000003         -1.4988479384245636E-008
  0.22700000000000004         -1.6943790385284925E-008
  0.23000000000000004         -1.9121141241991306E-008
  0.23300000000000004         -2.1520788830295874E-008
  0.23600000000000004         -2.4136986831284324E-008
  0.23900000000000005         -2.6984389170599285E-008
  0.24200000000000005         -3.0108622855887764E-008
  0.24500000000000005         -3.3565410132436329E-008
  0.24800000000000005         -3.7381186531667409E-008
  0.25100000000000006         -4.1526932262808360E-008
  0.25400000000000006         -4.5927674977613983E-008
  0.25700000000000006         -5.0513012300462744E-008
  0.26000000000000006         -5.5266331393991628E-008
  0.26300000000000007         -6.0239960388695812E-008
  0.26600000000000007         -6.5516346347426882E-008
  0.26900000000000007         -7.1138056617948151E-008
  0.27200000000000008         -7.7056468574901857E-008
  0.27500000000000008         -8.3134576780925209E-008
  0.27800000000000008         -8.9203168509363907E-008
  0.28100000000000008         -9.5130409317902933E-008
  0.28400000000000009         -1.0085080112845699E-007
  0.28700000000000009         -1.0634463429735479E-007
  0.29000000000000009         -1.1156356325436826E-007
  0.29300000000000009         -1.1638383465291944E-007
  0.29600000000000010         -1.2059410030546517E-007
  0.29900000000000010         -1.2393432719641476E-007
  0.30200000000000010         -1.2614835324234024E-007
  0.30499999999999999         -1.2699459236327513E-007
  0.30800000000000000         -1.2623932297064528E-007
  0.31100000000000000         -1.2360953496961003E-007
  0.31400000000000000         -1.1876368176650131E-007
  0.31700000000000000         -1.1131500990268354E-007
  0.32000000000000001         -1.0086521955885608E-007
  0.32300000000000001         -8.7012723602022752E-008
  0.32600000000000001         -6.9373876947686795E-008
  0.32900000000000001         -4.7528156640326081E-008
  0.33200000000000002         -2.1011857333870544E-008
  0.33500000000000002          1.0721403027287577E-008
  0.33800000000000002          4.8245252996805135E-008
  0.34100000000000003          9.2155511772899904E-008
  0.34400000000000003          1.4300208324096423E-007
  0.34700000000000003          2.0131460813442713E-007
  0.35000000000000003          2.6761531732061692E-007
  0.35300000000000004          3.4244023461349807E-007
  0.35600000000000004          4.2631717390902473E-007
  0.35900000000000004          5.1975631318572119E-007
  0.36200000000000004          6.2324496170838611E-007
  0.36500000000000005          7.3715767370163042E-007
  0.36800000000000005          8.6189475820894058E-007
  0.37100000000000005          9.9777925871813225E-007
  0.37400000000000005          1.1450833394939556E-006
  0.37700000000000006          1.3039740659033742E-006
  0.38000000000000006          1.4744956457874107E-006
  0.38300000000000006          1.6566013746486757E-006
  0.38600000000000007          1.8500534255143339E-006
  0.38900000000000007          2.0545414044453786E-006
  0.39200000000000007          2.2696472206659653E-006
  0.39500000000000007          2.4948047838685365E-006
  0.39800000000000008          2.7292944213454334E-006
  0.40100000000000008          2.9722208298023911E-006
  0.40400000000000008          3.2225197553433573E-006
  0.40700000000000008          3.4789744069314446E-006
  0.41000000000000009          3.7402166127453779E-006
  0.41300000000000009          4.0046677687487703E-006
  0.41600000000000009          4.2705507480000592E-006
  0.41900000000000009          4.5360031022078855E-006
  0.42200000000000010          4.7989707597192754E-006
  0.42500000000000010          5.0572211388116345E-006
  0.42800000000000010          5.3083937667673376E-006
  0.43100000000000011          5.5500431638057386E-006
  0.43400000000000000          5.7796096437264333E-006
  0.43700000000000000          5.9944436208544648E-006
  0.44000000000000000          6.1919041449630872E-006
  0.44300000000000000          6.3692899053637044E-006
  0.44600000000000001          6.5239092009341061E-006
  0.44900000000000001          6.6530644541042942E-006
  0.45200000000000001          6.7540385048025213E-006
  0.45500000000000002          6.8243205107828441E-006
  0.45800000000000002          6.8613713690684359E-006
  0.46100000000000002          6.8628568687459639E-006
  0.46400000000000002          6.8267644114848105E-006
  0.46700000000000003          6.7511340254790510E-006
  0.47000000000000003          6.6343372198726233E-006
  0.47300000000000003          6.4749835727935538E-006
  0.47600000000000003          6.2720559416289963E-006
  0.47900000000000004          6.0247132892094216E-006
  0.48200000000000004          5.7326920016618845E-006
  0.48500000000000004          5.3958964142445064E-006
  0.48800000000000004          5.0146878157543277E-006
  0.49100000000000005          4.5898058701958865E-006
  0.49400000000000005          4.1224039327338914E-006
  0.49700000000000005          3.6140383884445512E-006
  0.50000000000000000          3.0667016208885487E-006
  0.50300000000000011          2.4827909793568920E-006
  0.50600000000000001          1.8650806824967511E-006
  0.50900000000000012          1.2166807372452965E-006
  0.51200000000000001          5.4108704150323762E-007
  0.51500000000000012         -1.5788302508609618E-007
  0.51800000000000002         -8.7609055021788185E-007
  0.52100000000000013         -1.6091374803784048E-006
  0.52400000000000002         -2.3524253703623264E-006
  0.52700000000000014         -3.1012015819777714E-006
  0.53000000000000003         -3.8506553546978491E-006
  0.53300000000000014         -4.5958290908107888E-006
  0.53600000000000003         -5.3317213472332684E-006
  0.53900000000000015         -6.0533072649590863E-006
  0.54200000000000004         -6.7555783930420086E-006
  0.54500000000000015         -7.4336979861131583E-006
  0.54800000000000004         -8.0829192970383072E-006
  0.55100000000000016         -8.6988045740728037E-006
  0.55400000000000005         -9.2772299238316145E-006
  0.55700000000000016         -9.8142339605641209E-006
  0.56000000000000005         -1.0306240330575506E-005
  0.56299999999999994         -1.0750045961962779E-005
  0.56600000000000006         -1.1142793056151756E-005
  0.56899999999999995         -1.1482131505883261E-005
  0.57200000000000006         -1.1766059136895974E-005
  0.57499999999999996         -1.1993094286805152E-005
  0.57800000000000007         -1.2162274083697698E-005
  0.58099999999999996         -1.2272997092611898E-005
  0.58400000000000007         -1.2325228125643440E-005
  0.58699999999999997         -1.2319354070464146E-005
  0.59000000000000008         -1.2256271438013006E-005
  0.59299999999999997         -1.2137207833990492E-005
  0.59600000000000009         -1.1963946452587569E-005
  0.59899999999999998         -1.1738646849363960E-005
  0.60200000000000009         -1.1463710217344623E-005
  0.60500000000000020         -1.1142032840401752E-005
  0.60800000000000010         -1.0776738718299398E-005
  0.61100000000000021         -1.0371230851081704E-005
  0.61400000000000010         -9.9291109522554070E-006
  0.61700000000000021         -9.4541621827320384E-006
  0.62000000000000011         -8.9503351635057823E-006
  0.62300000000000022         -8.4216194519634868E-006
  0.62600000000000011         -7.8720881244757497E-006
  0.62900000000000000         -7.3058514222910151E-006
  0.63200000000000012         -6.7270066265082852E-006
  0.63500000000000001         -6.1395474403961408E-006
  0.63800000000000012         -5.5473793408116274E-006
  0.64100000000000001         -4.9543237903616359E-006
  0.64400000000000013         -4.3640345525645068E-006
  0.64700000000000002         -3.7799658326409938E-006
  0.65000000000000013         -3.2053403158123303E-006
  0.65300000000000002         -2.6431904976230437E-006
  0.65600000000000014         -2.0962473043148786E-006
  0.65900000000000003         -1.5669835104183806E-006
  0.66200000000000014         -1.0576192995321384E-006
  0.66500000000000004         -5.7019581467862683E-007
  0.66800000000000015         -1.0639051576315265E-007
  0.67100000000000004          3.3236533559670763E-007
  0.67400000000000015          7.4492316588707846E-007
  0.67700000000000005          1.1304045554205367E-006
  0.68000000000000016          1.4882817058839700E-006
  0.68300000000000005          1.8181657229049545E-006
  0.68600000000000017          2.1198514268490743E-006
  0.68900000000000006          2.3934145911192638E-006
  0.69200000000000017          2.6391597228003981E-006
  0.69500000000000006          2.8575483743196614E-006
  0.69800000000000018          3.0492319331692245E-006
  0.70100000000000007          3.2150630526668717E-006
  0.70400000000000018          3.3560018258849829E-006
  0.70700000000000007          3.4730341788514169E-006
  0.71000000000000019          3.5672791573627429E-006
  0.71300000000000008          3.6400042496394124E-006
  0.71600000000000019          3.6924810391721494E-006
  0.71900000000000008          3.7259891386781877E-006
  0.72200000000000020          3.7418986990207961E-006
  0.72500000000000009          3.7416243422043432E-006
  0.72800000000000020          3.7265220906759913E-006
  0.73100000000000009          3.6979775582626646E-006
  0.73400000000000021          3.6574288723534046E-006
  0.73700000000000010          3.6062040492603170E-006
  0.74000000000000021          3.5454840547177047E-006
  0.74300000000000010          3.4764401621489610E-006
  0.74600000000000022          3.4002555998825836E-006
  0.74900000000000011          3.3180333479299077E-006
  0.75200000000000022          3.2308403094810148E-006
  0.75500000000000012          3.1397562787664526E-006
  0.75800000000000001          3.0457308830251647E-006
  0.76100000000000012          2.9495231750157779E-006
  0.76400000000000001          2.8518585203985608E-006
  0.76700000000000013          2.7534899432685251E-006
  0.77000000000000002          2.6550729724551722E-006
  0.77300000000000013          2.5571705390497575E-006
  0.77600000000000002          2.4603142598528429E-006
  0.77900000000000014          2.3649295404851995E-006
  0.78200000000000003          2.2713064580703407E-006
  0.78500000000000014          2.1797467437733041E-006
  0.78800000000000003          2.0906305426985985E-006
  0.79100000000000015          2.0042625772583325E-006
  0.79400000000000004          1.9207973642938142E-006
  0.79700000000000015          1.8403361618346292E-006
  0.80000000000000004          1.7629128562950971E-006
  0.80300000000000016          1.6884867706054891E-006
  0.80600000000000005          1.6170919649543624E-006
  0.80900000000000016          1.5488690340231187E-006
  0.81200000000000006          1.4838809724804270E-006
  0.81500000000000017          1.4220381652786641E-006
  0.81800000000000006          1.3632009248320950E-006
  0.82100000000000017          1.3072196052085592E-006
  0.82400000000000007          1.2539332031147844E-006
  0.82700000000000018          1.2032734153455971E-006
  0.83000000000000007          1.1552730657820448E-006
  0.83300000000000018          1.1098884354382521E-006
  0.83600000000000008          1.0669260198486793E-006
  0.83900000000000019          1.0261769247950418E-006
  0.84200000000000008          9.8748561562957469E-007
  0.84500000000000020          9.5070015590522696E-007
  0.84800000000000009          9.1572906245832015E-007
  0.85100000000000020          8.8255694090828899E-007
  0.85400000000000009          8.5109475548220413E-007
  0.85700000000000021          8.2113076291306706E-007
  0.86000000000000010          7.9250118354575020E-007
  0.86300000000000021          7.6513765786317507E-007
  0.86600000000000010          7.3896984966570896E-007
  0.86900000000000022          7.1394050805579273E-007
  0.87200000000000011          6.9003122156497767E-007
  0.87500000000000022          6.6716970021439710E-007
  0.87800000000000011          6.4519899912507770E-007
  0.88100000000000001          6.2403134154125083E-007
  0.88400000000000012          6.0368101983852048E-007
  0.88700000000000001          5.8412745661717765E-007
  0.89000000000000012          5.6529829945405835E-007
  0.89300000000000002          5.4716002438844049E-007
  0.89600000000000013          5.2968135042469564E-007
  0.89900000000000002          5.1278386445556535E-007
  0.90200000000000014          4.9646201055007736E-007
  0.90500000000000003          4.8079938135404706E-007
  0.90800000000000014          4.6582046959491600E-007
  0.91100000000000003          4.5145821118641122E-007
  0.91400000000000015          4.3767447271465202E-007
  0.91700000000000004          4.2446159520987136E-007
  0.92000000000000015          4.1177679072351638E-007
  0.92300000000000004          3.9960017887271400E-007
  0.92600000000000016          3.8798556347082413E-007
  0.92900000000000005          3.7695083672694508E-007
  0.93200000000000016          3.6644870126067820E-007
  0.93500000000000005          3.5646054686903153E-007
  0.93800000000000017          3.4702102619211121E-007
  0.94100000000000006          3.3812258196927553E-007
  0.94400000000000017          3.2971869391973991E-007
  0.94700000000000006          3.2178876510920340E-007
  0.95000000000000018          3.1431893956000756E-007
  0.95300000000000007          3.0726767391127955E-007
  0.95600000000000018          3.0061719286954092E-007
  0.95900000000000007          2.9439183162434328E-007
  0.96200000000000019          2.8858037424319416E-007
  0.96500000000000008          2.8311374468711331E-007
  0.96800000000000019          2.7792582568660999E-007
  0.97100000000000009          2.7299691875917627E-007
  0.97400000000000020          2.6832739815690566E-007
  0.97700000000000009          2.6391540336074974E-007
  0.98000000000000020          2.5975754592421902E-007
  0.98300000000000010          2.5582425099918032E-007
  0.98600000000000021          2.5204477768453020E-007
  0.98900000000000010          2.4833848901471252E-007
  0.99200000000000021          2.4467811371156197E-007
  0.99500000000000011          2.4108023327769645E-007
  0.99800000000000022          2.3754662941590105E-007
   1.0010000000000001          2.3404137651901707E-007
   1.0040000000000002          2.3052830124247900E-007
   1.0070000000000001          2.2698231929759386E-007
   1.0100000000000000          2.2337319294552587E-007
   1.0130000000000001          2.1968369613168599E-007
   1.0160000000000000          2.1594048772543521E-007
   1.0190000000000001          2.1215393357172906E-007
   1.0220000000000000          2.0827848817216194E-007
   1.0250000000000001          2.0427431919736840E-007
   1.0280000000000000          2.0015956887222832E-007
   1.0310000000000001          1.9594699675112194E-007
   1.0340000000000000          1.9161345190423952E-007
   1.0370000000000001          1.8716525091676009E-007
   1.0400000000000000          1.8263766654822302E-007
   1.0430000000000001          1.7802928109220589E-007
   1.0460000000000000          1.7333527016671155E-007
   1.0490000000000002          1.6861662641054493E-007
   1.0520000000000000          1.6392692425620804E-007
   1.0550000000000002          1.5923414675050325E-007
   1.0580000000000001          1.5450940408710911E-007
   1.0610000000000002          1.4979100024596889E-007
   1.0640000000000001          1.4511866253094527E-007
   1.0670000000000002          1.4050508134879692E-007
   1.0700000000000001          1.3599824871057599E-007
   1.0730000000000002          1.3165309670441841E-007
   1.0760000000000001          1.2744524871452651E-007
   1.0790000000000002          1.2333206718639904E-007
   1.0820000000000001          1.1935870765980754E-007
   1.0850000000000002          1.1560158956270061E-007
   1.0880000000000001          1.1207862170205875E-007
   1.0910000000000002          1.0879028067280758E-007
   1.0940000000000001          1.0575814349417189E-007
   1.0970000000000002          1.0296661845482524E-007
