 -0.39999999999999997          0.0000000000000000     
 -0.39699999999999996          0.0000000000000000     
 -0.39399999999999996          0.0000000000000000     
 -0.39099999999999996          0.0000000000000000     
 -0.38799999999999996          0.0000000000000000     
 -0.38499999999999995          0.0000000000000000     
 -0.38199999999999995          0.0000000000000000     
 -0.37899999999999995          0.0000000000000000     
 -0.37599999999999995          0.0000000000000000     
 -0.37299999999999994          0.0000000000000000     
 -0.37000000000000000          0.0000000000000000     
 -0.36699999999999999          0.0000000000000000     
 -0.36399999999999999          0.0000000000000000     
 -0.36099999999999999          0.0000000000000000     
 -0.35799999999999998          0.0000000000000000     
 -0.35499999999999998          0.0000000000000000     
 -0.35199999999999998          0.0000000000000000     
 -0.34899999999999998          0.0000000000000000     
 -0.34599999999999997          0.0000000000000000     
 -0.34299999999999997          0.0000000000000000     
 -0.33999999999999997          0.0000000000000000     
 -0.33699999999999997          0.0000000000000000     
 -0.33399999999999996          0.0000000000000000     
 -0.33099999999999996          0.0000000000000000     
 -0.32799999999999996          0.0000000000000000     
 -0.32499999999999996          0.0000000000000000     
 -0.32199999999999995          0.0000000000000000     
 -0.31899999999999995          0.0000000000000000     
 -0.31599999999999995          0.0000000000000000     
 -0.31299999999999994          0.0000000000000000     
 -0.30999999999999994          0.0000000000000000     
 -0.30699999999999994          0.0000000000000000     
 -0.30399999999999994          0.0000000000000000     
 -0.30099999999999993          0.0000000000000000     
 -0.29799999999999993          0.0000000000000000     
 -0.29499999999999998          0.0000000000000000     
 -0.29199999999999998          0.0000000000000000     
 -0.28899999999999998          0.0000000000000000     
 -0.28599999999999998          0.0000000000000000     
 -0.28299999999999997          0.0000000000000000     
 -0.27999999999999997          0.0000000000000000     
 -0.27699999999999997          0.0000000000000000     
 -0.27399999999999997          0.0000000000000000     
 -0.27099999999999996          0.0000000000000000     
 -0.26799999999999996          0.0000000000000000     
 -0.26499999999999996          0.0000000000000000     
 -0.26199999999999996          0.0000000000000000     
 -0.25899999999999995          0.0000000000000000     
 -0.25599999999999995          0.0000000000000000     
 -0.25300000000000000          0.0000000000000000     
 -0.24999999999999997          0.0000000000000000     
 -0.24699999999999997          0.0000000000000000     
 -0.24399999999999997          0.0000000000000000     
 -0.24099999999999996          0.0000000000000000     
 -0.23799999999999996          0.0000000000000000     
 -0.23499999999999996          0.0000000000000000     
 -0.23199999999999996          0.0000000000000000     
 -0.22899999999999995          0.0000000000000000     
 -0.22599999999999995          0.0000000000000000     
 -0.22299999999999998          0.0000000000000000     
 -0.21999999999999997          0.0000000000000000     
 -0.21699999999999997          0.0000000000000000     
 -0.21399999999999997          0.0000000000000000     
 -0.21099999999999997          0.0000000000000000     
 -0.20799999999999996          0.0000000000000000     
 -0.20499999999999996          0.0000000000000000     
 -0.20199999999999996          0.0000000000000000     
 -0.19899999999999995          0.0000000000000000     
 -0.19599999999999995          0.0000000000000000     
 -0.19299999999999995          0.0000000000000000     
 -0.18999999999999997          0.0000000000000000     
 -0.18699999999999997          0.0000000000000000     
 -0.18399999999999997          0.0000000000000000     
 -0.18099999999999997          0.0000000000000000     
 -0.17799999999999996          0.0000000000000000     
 -0.17499999999999996          0.0000000000000000     
 -0.17199999999999996          0.0000000000000000     
 -0.16899999999999996          0.0000000000000000     
 -0.16599999999999995          0.0000000000000000     
 -0.16299999999999995          0.0000000000000000     
 -0.15999999999999998          0.0000000000000000     
 -0.15699999999999997          0.0000000000000000     
 -0.15399999999999997          0.0000000000000000     
 -0.15099999999999997          0.0000000000000000     
 -0.14799999999999996          0.0000000000000000     
 -0.14499999999999996          0.0000000000000000     
 -0.14199999999999996          0.0000000000000000     
 -0.13899999999999996          0.0000000000000000     
 -0.13599999999999995          0.0000000000000000     
 -0.13299999999999995          0.0000000000000000     
 -0.12999999999999995          0.0000000000000000     
 -0.12699999999999995          0.0000000000000000     
 -0.12399999999999994          0.0000000000000000     
 -0.12099999999999994          0.0000000000000000     
 -0.11799999999999994          0.0000000000000000     
 -0.11499999999999994          0.0000000000000000     
 -0.11199999999999993          0.0000000000000000     
 -0.10899999999999999          0.0000000000000000     
 -0.10599999999999998         -3.4265698074356852E-042
 -0.10299999999999998          0.0000000000000000     
  -9.9999999999999978E-002     1.7268036562914679E-041
  -9.6999999999999975E-002     3.8875455942849384E-042
  -9.3999999999999972E-002    -2.6745398421420827E-041
  -9.0999999999999970E-002     7.2512979966505200E-041
  -8.7999999999999967E-002     2.4637964563635621E-040
  -8.4999999999999964E-002     1.1245059809566658E-040
  -8.1999999999999962E-002     4.3840163430201755E-041
  -7.8999999999999959E-002     6.1540844500475655E-041
  -7.5999999999999956E-002    -5.5438728942217621E-040
  -7.2999999999999954E-002    -2.2682209580735046E-041
  -6.9999999999999951E-002    -1.6025129035667439E-038
  -6.6999999999999948E-002    -3.3195476723561946E-038
  -6.3999999999999946E-002     9.6535090371216180E-040
  -6.0999999999999943E-002     8.5260646880047980E-038
  -5.7999999999999940E-002     1.3825237571314710E-037
  -5.4999999999999938E-002    -2.6275875435774846E-038
  -5.1999999999999935E-002    -4.1613098847538939E-037
  -4.8999999999999932E-002    -5.6105127292762972E-037
  -4.5999999999999985E-002     2.6566076295947985E-037
  -4.2999999999999983E-002     1.9177229492335567E-036
  -3.9999999999999980E-002     2.2580173637531324E-036
  -3.6999999999999977E-002    -1.5920029631204158E-036
  -3.3999999999999975E-002    -8.4819052405529358E-036
  -3.0999999999999972E-002    -9.1640528516493594E-036
  -2.7999999999999969E-002     7.7579629490435690E-036
  -2.4999999999999967E-002     3.6328944125655456E-035
  -2.1999999999999964E-002     3.8014403531836847E-035
  -1.8999999999999961E-002    -3.2926734590602565E-035
  -1.5999999999999959E-002    -1.5138520390801654E-034
  -1.2999999999999956E-002    -1.6170864722844278E-034
  -9.9999999999999534E-003     1.2268770981721236E-034
  -6.9999999999999507E-003     6.1299660194548717E-034
  -3.9999999999999480E-003     7.0059746117538817E-034
  -9.9999999999994538E-004    -3.8451638524570681E-034
   2.0000000000000573E-003    -2.3985523293661467E-033
   5.0000000000000600E-003    -3.0493053161081132E-033
   8.0000000000000626E-003     8.4583705113768754E-034
   1.1000000000000065E-002     8.9746689573543925E-033
   1.4000000000000068E-002     1.3105700559605116E-032
   1.7000000000000015E-002     2.5658572741431432E-034
   2.0000000000000018E-002    -3.1558281797000032E-032
   2.3000000000000020E-002    -5.4657595151560853E-032
   2.6000000000000023E-002    -1.7600007411853858E-032
   2.9000000000000026E-002     1.0123048015365868E-031
   3.2000000000000028E-002     2.1739485673165837E-031
   3.5000000000000031E-002     1.3617110001464687E-031
   3.8000000000000034E-002    -2.7871145024009751E-031
   4.1000000000000036E-002    -8.0910251948118588E-031
   4.4000000000000039E-002    -7.6421991160160160E-031
   4.7000000000000042E-002     5.4827290704130804E-031
   5.0000000000000044E-002     2.7479819802706726E-030
   5.3000000000000047E-002     3.5966340010425245E-030
   5.6000000000000050E-002     5.1500346206445781E-032
   5.9000000000000052E-002    -8.1643056700869212E-030
   6.2000000000000055E-002    -1.4710088079569782E-029
   6.5000000000000058E-002    -7.8097273521936204E-030
   6.8000000000000060E-002     1.9234907546891895E-029
   7.1000000000000063E-002     5.2254771820731184E-029
   7.4000000000000066E-002     5.1385882753350513E-029
   7.7000000000000068E-002    -2.3299267001636846E-029
   8.0000000000000016E-002    -1.5628619812423391E-028
   8.3000000000000018E-002    -2.3342686698699939E-028
   8.6000000000000021E-002    -8.3507820355395106E-029
   8.9000000000000024E-002     3.5671943525465657E-028
   9.2000000000000026E-002     8.3657220062180217E-028
   9.5000000000000029E-002     7.6949362193581191E-028
   9.8000000000000032E-002    -3.7797235093003510E-028
  0.10100000000000003         -2.3448165955640275E-027
  0.10400000000000004         -3.5454790578658602E-027
  0.10700000000000004         -1.6318429106786347E-027
  0.11000000000000004          4.4184816601715081E-027
  0.11300000000000004          1.1669244861616671E-026
  0.11600000000000005          1.2656072462594154E-026
  0.11900000000000005         -3.9534497817201475E-028
  0.12200000000000005         -2.6788200280706974E-026
  0.12500000000000006         -4.9699421449557715E-026
  0.12800000000000006         -3.9417949364698295E-026
  0.13100000000000006          2.5873556505835556E-026
  0.13400000000000006          1.2838370179097966E-025
  0.13700000000000007          1.9252165169429100E-025
  0.14000000000000007          1.1194717894234937E-025
  0.14300000000000007         -1.6637789285648105E-025
  0.14600000000000007         -5.3844281323308940E-025
  0.14900000000000008         -7.0883137046351544E-025
  0.15200000000000008         -3.1933105059274197E-025
  0.15500000000000008          7.5046588392908168E-025
  0.15800000000000008          2.0616772371397138E-024
  0.16100000000000009          2.5644606191540141E-024
  0.16400000000000009          1.0790982519936290E-024
  0.16700000000000009         -2.7186619144862466E-024
  0.17000000000000010         -7.3149786168748731E-024
  0.17300000000000010         -9.2540564201883782E-024
  0.17600000000000010         -4.6512194963859413E-024
  0.17899999999999999          7.8033387784061169E-024
  0.18200000000000000          2.3812904141668101E-023
  0.18500000000000000          3.2883946396562809E-023
  0.18800000000000000          2.2307693372884433E-023
  0.19100000000000000         -1.4382117268370025E-023
  0.19400000000000001         -6.8072120024800011E-023
  0.19700000000000001         -1.1031174295634940E-022
  0.20000000000000001         -1.0135935204922299E-022
  0.20300000000000001         -1.1428895548089737E-023
  0.20600000000000002          1.5189774623708219E-022
  0.20900000000000002          3.2523818431110976E-022
  0.21200000000000002          3.9734276115140643E-022
  0.21500000000000002          2.5290640952205720E-022
  0.21800000000000003         -1.5596499896450428E-022
  0.22100000000000003         -7.4005229020917172E-022
  0.22400000000000003         -1.2480761331465350E-021
  0.22700000000000004         -1.3242752647349560E-021
  0.23000000000000004         -6.5726808626842745E-022
  0.23300000000000004          8.1785498143626756E-022
  0.23600000000000004          2.7490286128942084E-021
  0.23900000000000005          4.3353172174744685E-021
  0.24200000000000005          4.5168183417873189E-021
  0.24500000000000005          2.3932562232521252E-021
  0.24800000000000005         -2.2338718552637544E-021
  0.25100000000000006         -8.4076639554964964E-021
  0.25400000000000006         -1.3911227167976637E-020
  0.25700000000000006         -1.5716597486340288E-020
  0.26000000000000006         -1.1017792589889893E-020
  0.26300000000000007          1.3768358501779393E-021
  0.26600000000000007          1.9767618736357693E-020
  0.26900000000000007          3.9008458655434101E-020
  0.27200000000000008          5.1195363208298371E-020
  0.27500000000000008          4.7787603950092682E-020
  0.27800000000000008          2.2830277089080509E-020
  0.28100000000000008         -2.3603429945404366E-020
  0.28400000000000009         -8.3006497425927309E-020
  0.28700000000000009         -1.3833376078204277E-019
  0.29000000000000009         -1.6701200783076687E-019
  0.29300000000000009         -1.4701126714179168E-019
  0.29600000000000010         -6.4843728152957459E-020
  0.29900000000000010          7.6628424703971106E-020
  0.30200000000000010          2.5324264225773936E-019
  0.30499999999999999          4.1994197363762458E-019
  0.30800000000000000          5.1803908926254961E-019
  0.31100000000000000          4.8911794252858620E-019
  0.31400000000000000          2.9326179150543100E-019
  0.31700000000000000         -7.2633401854050089E-020
  0.32000000000000001         -5.6185386845060507E-019
  0.32300000000000001         -1.0754217697731802E-018
  0.32600000000000001         -1.4737938326381231E-018
  0.32900000000000001         -1.6032289628528849E-018
  0.33200000000000002         -1.3334805921512097E-018
  0.33500000000000002         -5.9967379791609921E-019
  0.33800000000000002          5.6148321803447708E-019
  0.34100000000000003          1.9917263484932675E-018
  0.34400000000000003          3.4163195213295823E-018
  0.34700000000000003          4.4787701402274357E-018
  0.35000000000000003          4.8036975682150910E-018
  0.35300000000000004          4.0795664956403236E-018
  0.35600000000000004          2.1469456262454372E-018
  0.35900000000000004         -9.2594311003018234E-019
  0.36200000000000004         -4.7992351699712645E-018
  0.36500000000000005         -8.8646459423614655E-018
  0.36800000000000005         -1.2304729775927600E-017
  0.37100000000000005         -1.4207585488060592E-017
  0.37400000000000005         -1.3725687916429984E-017
  0.37700000000000006         -1.0257638722573697E-017
  0.38000000000000006         -3.6238801274419115E-018
  0.38300000000000006          5.7961704023324716E-018
  0.38600000000000007          1.6997154600937753E-017
  0.38900000000000007          2.8376075175793434E-017
  0.39200000000000007          3.7870073739786086E-017
  0.39500000000000007          4.3202948742328239E-017
  0.39800000000000008          4.2222971488537690E-017
  0.40100000000000008          3.3297394000903566E-017
  0.40400000000000008          1.5714285355917018E-017
  0.40700000000000008         -9.9685589480670844E-018
  0.41000000000000009         -4.1692307432067437E-017
  0.41300000000000009         -7.5844860162451991E-017
  0.41600000000000009         -1.0743671023239640E-016
  0.41900000000000009         -1.3053225217332857E-016
  0.42200000000000010         -1.3893291096543370E-016
  0.42500000000000010         -1.2707177010649907E-016
  0.42800000000000010         -9.1038075252975722E-017
  0.43100000000000011         -2.9611767325680979E-017
  0.43400000000000000          5.4842703506077516E-017
  0.43700000000000000          1.5579014771387139E-016
  0.44000000000000000          2.6240881187369569E-016
  0.44300000000000000          3.6007747862011882E-016
  0.44600000000000001          4.3154208911329305E-016
  0.44900000000000001          4.5875818322195023E-016
  0.45200000000000001          4.2530612372578277E-016
  0.45500000000000002          3.1917084499077414E-016
  0.45800000000000002          1.3558052373658227E-016
  0.46100000000000002         -1.2048176529764682E-016
  0.46400000000000002         -4.3251463027089331E-016
  0.46700000000000003         -7.7189665405549505E-016
  0.47000000000000003         -1.0987902668422839E-015
  0.47300000000000003         -1.3647698212186307E-015
  0.47600000000000003         -1.5172048876021383E-015
  0.47900000000000004         -1.5052121772288100E-015
  0.48200000000000004         -1.2867492710411169E-015
  0.48500000000000004         -8.3619043855818276E-016
  0.48800000000000004         -1.5153199891293587E-016
  0.49100000000000005          7.3974217003074237E-016
  0.49400000000000005          1.7771419285140254E-015
  0.49700000000000005          2.8669120109006412E-015
  0.50000000000000000          3.8857571533986589E-015
  0.50300000000000011          4.6889257766416521E-015
  0.50600000000000001          5.1226345029266331E-015
  0.50900000000000012          5.0402743015939141E-015
  0.51200000000000001          4.3213480620949939E-015
  0.51500000000000012          2.8915261014067364E-015
  0.51800000000000002          7.4181646494667590E-016
  0.52100000000000013         -2.0554973572244308E-015
  0.52400000000000002         -5.3365768687866603E-015
  0.52700000000000014         -8.8436893463824528E-015
  0.53000000000000003         -1.2232761466052078E-014
  0.53300000000000014         -1.5091957992125622E-014
  0.53600000000000003         -1.6971637668812827E-014
  0.53900000000000015         -1.7424780003899463E-014
  0.54200000000000004         -1.6055749426237872E-014
  0.54500000000000015         -1.2574001826916883E-014
  0.54800000000000004         -6.8481003603959886E-015
  0.55100000000000016          1.0454640728928416E-015
  0.55400000000000005          1.0784710883608587E-014
  0.55700000000000016          2.1781967234532079E-014
  0.56000000000000005          3.3186448894129935E-014
  0.56299999999999994          4.3913984216437035E-014
  0.56600000000000006          5.2706112040316702E-014
  0.56899999999999995          5.8218548727688579E-014
  0.57200000000000006          5.9136121772907208E-014
  0.57499999999999996          5.4307927237760113E-014
  0.57800000000000007          4.2893942349806880E-014
  0.58099999999999996          2.4511011949069463E-014
  0.58400000000000007         -6.3541845502211637E-016
  0.58699999999999997         -3.1648943792028444E-014
  0.59000000000000008         -6.6884131318644203E-014
  0.59299999999999997         -1.0394630504779220E-013
  0.59600000000000009         -1.3975998871107301E-013
  0.59899999999999998         -1.7071206662690383E-013
  0.60200000000000009         -1.9287115013254675E-013
  0.60500000000000020         -2.0227708638351707E-013
  0.60800000000000010         -1.9528816464839123E-013
  0.61100000000000021         -1.6896595540782171E-013
  0.61400000000000010         -1.2147163421494461E-013
  0.61700000000000021         -5.2441663549512036E-014
  0.62000000000000011          3.6692780370168156E-014
  0.62300000000000022          1.4247909599777390E-013
  0.62600000000000011          2.5934484323706654E-013
  0.62900000000000000          3.7965828152466616E-013
  0.63200000000000012          4.9396997487246469E-013
  0.63500000000000001          5.9144772640356250E-013
  0.63800000000000012          6.6050252172928646E-013
  0.64100000000000001          6.8958778358372755E-013
  0.64400000000000013          6.6813856368620022E-013
  0.64700000000000002          5.8759913778247789E-013
  0.65000000000000013          4.4247489787578618E-013
  0.65300000000000002          2.3132971599926704E-013
  0.65600000000000014         -4.2355888240808757E-014
  0.65900000000000003         -3.6955427020155316E-013
  0.66200000000000014         -7.3537163819010174E-013
  0.66500000000000004         -1.1191155216393407E-012
  0.66800000000000015         -1.4948059898528376E-012
  0.67100000000000004         -1.8321598283595792E-012
  0.67400000000000015         -2.0980567640026352E-012
  0.67700000000000005         -2.2584491315069834E-012
  0.68000000000000016         -2.2806529272039125E-012
  0.68300000000000005         -2.1359149508495985E-012
  0.68600000000000017         -1.8021165180369095E-012
  0.68900000000000006         -1.2664490913292988E-012
  0.69200000000000017         -5.2786818637671500E-013
  0.69500000000000006          4.0086711644462647E-013
  0.69800000000000018          1.4917744708482585E-012
  0.70100000000000007          2.7010268243025454E-012
  0.70400000000000018          3.9692919931311103E-012
  0.70700000000000007          5.2231400951823619E-012
  0.71000000000000019          6.3775835113711525E-012
  0.71300000000000008          7.3397341799890880E-012
  0.71600000000000019          8.0135045992487507E-012
  0.71900000000000008          8.3051995450237973E-012
  0.72200000000000020          8.1297494844818618E-012
  0.72500000000000009          7.4173051012421947E-012
  0.72800000000000020          6.1198181470954722E-012
  0.73100000000000009          4.2171986866485693E-012
  0.73400000000000021          1.7226376952545108E-012
  0.73700000000000010         -1.3133681387283449E-012
  0.74000000000000021         -4.8006400830429195E-012
  0.74300000000000010         -8.6090413503482533E-012
  0.74600000000000022         -1.2570416273462275E-011
  0.74900000000000011         -1.6483145404608272E-011
  0.75200000000000022         -2.0119171303118310E-011
  0.75500000000000012         -2.3233610413200701E-011
  0.75800000000000001         -2.5576574399166774E-011
  0.76100000000000012         -2.6906985097034365E-011
  0.76400000000000001         -2.7007867876514629E-011
  0.76700000000000013         -2.5702511636470097E-011
  0.77000000000000002         -2.2870968828300225E-011
  0.77300000000000013         -1.8465992643959365E-011
  0.77600000000000002         -1.2527911765333210E-011
  0.77900000000000014         -5.1975602234428600E-012
  0.78200000000000003          3.2732453967689725E-012
  0.78500000000000014          1.2514068334685276E-011
  0.78800000000000003          2.2031663762401137E-011
  0.79100000000000015          3.1209034686063923E-011
  0.79400000000000004          3.9307516996455117E-011
  0.79700000000000015          4.5472084192540511E-011
  0.80000000000000004          4.8738543305377695E-011
  0.80300000000000016          4.8042785215437996E-011
  0.80600000000000005          4.2229551355204123E-011
  0.80900000000000016          3.0060637192408230E-011
  0.81200000000000006          1.0220555904213340E-011
  0.81500000000000017         -1.8683126442696661E-011
  0.81800000000000006         -5.8123811136922029E-011
  0.82100000000000017         -1.0966771207242650E-010
  0.82400000000000007         -1.7499495258566026E-010
  0.82700000000000018         -2.5593372660868014E-010
  0.83000000000000007         -3.5450341758673200E-010
  0.83300000000000018         -4.7297434299379863E-010
  0.83600000000000008         -6.1393804666631350E-010
  0.83900000000000019         -7.8040032438945170E-010
  0.84200000000000008         -9.7588151868232599E-010
  0.84500000000000020         -1.2045407031046478E-009
  0.84800000000000009         -1.4713183296784392E-009
  0.85100000000000020         -1.7820938608661423E-009
  0.85400000000000009         -2.1438536391852605E-009
  0.85700000000000021         -2.5648947543135844E-009
  0.86000000000000010         -3.0550426554117082E-009
  0.86300000000000021         -3.6258689419324613E-009
  0.86600000000000010         -4.2909792281328959E-009
  0.86900000000000022         -5.0662546563051302E-009
  0.87200000000000011         -5.9701964633543153E-009
  0.87500000000000022         -7.0242621725291133E-009
  0.87800000000000011         -8.2531971981668300E-009
  0.88100000000000001         -9.6854583185328171E-009
  0.88400000000000012         -1.1353644350368546E-008
  0.88700000000000001         -1.3295018901536728E-008
  0.89000000000000012         -1.5552020141962817E-008
  0.89300000000000002         -1.8172799558867838E-008
  0.89600000000000013         -2.1211933044871326E-008
  0.89900000000000002         -2.4731067495139985E-008
  0.90200000000000014         -2.8799688607449870E-008
  0.90500000000000003         -3.3496004539441600E-008
  0.90800000000000014         -3.8907685014423848E-008
  0.91100000000000003         -4.5133038926244084E-008
  0.91400000000000015         -5.2281892426783218E-008
  0.91700000000000004         -6.0476788928922019E-008
  0.92000000000000015         -6.9853805067586961E-008
  0.92300000000000004         -8.0564247111920556E-008
  0.92600000000000016         -9.2775349769036040E-008
  0.92900000000000005         -1.0667191626207148E-007
  0.93200000000000016         -1.2245745417463543E-007
  0.93500000000000005         -1.4035529180805306E-007
  0.93800000000000017         -1.6061007927874544E-007
  0.94100000000000006         -1.8348836032335164E-007
  0.94400000000000017         -2.0928010530639081E-007
  0.94700000000000006         -2.3829965528003812E-007
  0.95000000000000018         -2.7088591861662471E-007
  0.95300000000000007         -3.0740323269284678E-007
  0.95600000000000018         -3.4824236583051268E-007
  0.95900000000000007         -3.9381964943570471E-007
  0.96200000000000019         -4.4457591974686436E-007
  0.96500000000000008         -5.0097805827078000E-007
  0.96800000000000019         -5.6351423520969662E-007
  0.97100000000000009         -6.3269615766345362E-007
  0.97400000000000020         -7.0905408917498888E-007
  0.97700000000000009         -7.9313407011789005E-007
  0.98000000000000020         -8.8549700575640389E-007
  0.98300000000000010         -9.8670968012667693E-007
  0.98600000000000021         -1.0973428473778942E-006
  0.98900000000000010         -1.2179637983196747E-006
  0.99200000000000021         -1.3491301965833797E-006
  0.99500000000000011         -1.4913826493738497E-006
  0.99800000000000022         -1.6452345054324574E-006
   1.0010000000000001         -1.8111622489948476E-006
   1.0040000000000002         -1.9895988021257142E-006
   1.0070000000000001         -2.1809150392510269E-006
   1.0100000000000000         -2.3854129160292484E-006
   1.0130000000000001         -2.6033124855950762E-006
   1.0160000000000000         -2.8347340617328732E-006
   1.0190000000000001         -3.0796877429477423E-006
   1.0220000000000000         -3.3380538753660609E-006
   1.0250000000000001         -3.6095768015087764E-006
   1.0280000000000000         -3.8938339045026303E-006
   1.0310000000000001         -4.1902436739108057E-006
   1.0340000000000000         -4.4980294137590853E-006
   1.0370000000000001         -4.8162135360340301E-006
   1.0400000000000000         -5.1436103121477517E-006
   1.0430000000000001         -5.4788023183059086E-006
   1.0460000000000000         -5.8201410352845847E-006
   1.0490000000000002         -6.1657267324674589E-006
   1.0520000000000000         -6.5134156141060276E-006
   1.0550000000000002         -6.8608072255538468E-006
   1.0580000000000001         -7.2052514132089911E-006
   1.0610000000000002         -7.5438330029056143E-006
   1.0640000000000001         -7.8734001259774161E-006
   1.0670000000000002         -8.1905646507048020E-006
   1.0700000000000001         -8.4917176732365200E-006
   1.0730000000000002         -8.7730323779801888E-006
   1.0760000000000001         -9.0305059048849296E-006
   1.0790000000000002         -9.2599894879802491E-006
   1.0820000000000001         -9.4572076434075606E-006
   1.0850000000000002         -9.6177865482814313E-006
   1.0880000000000001         -9.7373132448816208E-006
   1.0910000000000002         -9.8113728361457302E-006
   1.0940000000000001         -9.8356101932401130E-006
   1.0970000000000002         -9.8057458161440102E-006
