 -0.39999999999999997          0.0000000000000000     
 -0.39699999999999996          0.0000000000000000     
 -0.39399999999999996          0.0000000000000000     
 -0.39099999999999996          0.0000000000000000     
 -0.38799999999999996          0.0000000000000000     
 -0.38499999999999995          0.0000000000000000     
 -0.38199999999999995          0.0000000000000000     
 -0.37899999999999995          0.0000000000000000     
 -0.37599999999999995          0.0000000000000000     
 -0.37299999999999994          0.0000000000000000     
 -0.37000000000000000          0.0000000000000000     
 -0.36699999999999999          0.0000000000000000     
 -0.36399999999999999          0.0000000000000000     
 -0.36099999999999999          0.0000000000000000     
 -0.35799999999999998          0.0000000000000000     
 -0.35499999999999998          0.0000000000000000     
 -0.35199999999999998          0.0000000000000000     
 -0.34899999999999998          0.0000000000000000     
 -0.34599999999999997          0.0000000000000000     
 -0.34299999999999997          0.0000000000000000     
 -0.33999999999999997          0.0000000000000000     
 -0.33699999999999997          0.0000000000000000     
 -0.33399999999999996          0.0000000000000000     
 -0.33099999999999996          0.0000000000000000     
 -0.32799999999999996          0.0000000000000000     
 -0.32499999999999996          0.0000000000000000     
 -0.32199999999999995          0.0000000000000000     
 -0.31899999999999995          0.0000000000000000     
 -0.31599999999999995          0.0000000000000000     
 -0.31299999999999994          0.0000000000000000     
 -0.30999999999999994          0.0000000000000000     
 -0.30699999999999994          0.0000000000000000     
 -0.30399999999999994          0.0000000000000000     
 -0.30099999999999993          0.0000000000000000     
 -0.29799999999999993          0.0000000000000000     
 -0.29499999999999998          0.0000000000000000     
 -0.29199999999999998          0.0000000000000000     
 -0.28899999999999998          0.0000000000000000     
 -0.28599999999999998          0.0000000000000000     
 -0.28299999999999997          0.0000000000000000     
 -0.27999999999999997          0.0000000000000000     
 -0.27699999999999997          0.0000000000000000     
 -0.27399999999999997          0.0000000000000000     
 -0.27099999999999996          0.0000000000000000     
 -0.26799999999999996          5.1350114584951913E-042
 -0.26499999999999996         -6.2076712850826464E-040
 -0.26199999999999996          9.7572260635369136E-042
 -0.25899999999999995          3.7729003581679922E-039
 -0.25599999999999995         -6.4110544561045048E-039
 -0.25300000000000000         -1.7047706281975367E-038
 -0.24999999999999997          5.5743816735553338E-038
 -0.24699999999999997          2.8425773819030003E-038
 -0.24399999999999997         -3.3563132255740961E-037
 -0.24099999999999996          1.1297718385272752E-037
 -0.23799999999999996          1.5485785147107242E-036
 -0.23499999999999996         -1.5273901626681299E-036
 -0.23199999999999996         -6.1682477006727069E-036
 -0.22899999999999995          9.8870112797511410E-036
 -0.22599999999999995          2.1662346849145620E-035
 -0.22299999999999998         -4.9217093784902275E-035
 -0.21999999999999997         -6.8633965291556073E-035
 -0.21699999999999997          2.0872522626747699E-034
 -0.21399999999999997          2.0141986527300808E-034
 -0.21099999999999997         -7.8557146735560250E-034
 -0.20799999999999996         -5.6858663701096903E-034
 -0.20499999999999996          2.6741115547758570E-033
 -0.20199999999999996          1.6222609168851031E-033
 -0.19899999999999995         -8.2878045199582745E-033
 -0.19599999999999995         -4.8689948174153591E-033
 -0.19299999999999995          2.3295868049501857E-032
 -0.18999999999999997          1.5314463881430761E-032
 -0.18699999999999997         -5.8380227795283760E-032
 -0.18399999999999997         -4.7980501354927640E-032
 -0.18099999999999997          1.2517368428577902E-031
 -0.17799999999999996          1.3974725641353190E-031
 -0.17499999999999996         -2.0597337071076321E-031
 -0.17199999999999996         -3.5036933862367751E-031
 -0.16899999999999996          1.5255026140221993E-031
 -0.16599999999999995          6.6277799307765150E-031
 -0.16299999999999995          5.1647696233309252E-031
 -0.15999999999999998         -5.0551055310702375E-031
 -0.15699999999999997         -2.6848499059175506E-030
 -0.15399999999999997         -2.5793175503251914E-030
 -0.15099999999999997          6.3328597411932918E-030
 -0.14799999999999996          1.4890021507006044E-029
 -0.14499999999999996         -4.6572358459556173E-030
 -0.14199999999999996         -4.4398697727809945E-029
 -0.13899999999999996         -2.9227651112833589E-029
 -0.13599999999999995          7.7672983816968856E-029
 -0.13299999999999995          1.4889881255695372E-028
 -0.12999999999999995         -8.8421517449163292E-030
 -0.12699999999999995         -3.6009385518812056E-028
 -0.12399999999999994         -4.5109985682336668E-028
 -0.12099999999999994          3.0371839668685739E-028
 -0.11799999999999994          1.5840539817747698E-027
 -0.11499999999999994          1.3124896521645066E-027
 -0.11199999999999993         -2.3800300694018003E-027
 -0.10899999999999999         -6.3940170096398890E-027
 -0.10599999999999998         -2.3475622330902979E-027
 -0.10299999999999998          1.2523502673324561E-026
  -9.9999999999999978E-002     2.2307035443404095E-026
  -9.6999999999999975E-002     1.8097560351701688E-028
  -9.3999999999999972E-002    -5.3463871408973774E-026
  -9.0999999999999970E-002    -7.5577680463079895E-026
  -8.7999999999999967E-002     2.2281463259624728E-026
  -8.4999999999999964E-002     2.1471653828724921E-025
  -8.1999999999999962E-002     2.5359622233937752E-025
  -7.8999999999999959E-002    -1.4982817528339665E-025
  -7.5999999999999956E-002    -8.1895022207235918E-025
  -7.2999999999999954E-002    -8.3695196790964108E-025
  -6.9999999999999951E-002     6.9545909223872064E-025
  -6.6999999999999948E-002     2.9850428619186752E-024
  -6.3999999999999946E-002     2.8294756991140069E-024
  -6.0999999999999943E-002    -2.6872353121302417E-024
  -5.7999999999999940E-002    -1.0611121510284731E-023
  -5.4999999999999938E-002    -9.9176244526052539E-024
  -5.1999999999999935E-002     9.2157415095044322E-024
  -4.8999999999999932E-002     3.6779084471488671E-023
  -4.5999999999999985E-002     3.5774119397655433E-023
  -4.2999999999999983E-002    -2.7679953479082322E-023
  -3.9999999999999980E-002    -1.2363741930732933E-022
  -3.6999999999999977E-002    -1.3171475742089800E-022
  -3.3999999999999975E-002     6.8341868607508132E-023
  -3.0999999999999972E-002     4.0053754489606520E-022
  -2.7999999999999969E-002     4.8537712422100002E-022
  -2.4999999999999967E-002    -1.0630565731215584E-022
  -2.1999999999999964E-002    -1.2323235791992687E-021
  -1.8999999999999961E-002    -1.7510353527599523E-021
  -1.5999999999999959E-002    -1.5873282558114783E-022
  -1.2999999999999956E-002     3.5171574610181200E-021
  -9.9999999999999534E-003     6.0655968023900112E-021
  -6.9999999999999507E-003     2.4029899791319728E-021
  -3.9999999999999480E-003    -8.9402348129631890E-021
  -9.9999999999994538E-004    -1.9782803679730049E-020
   2.0000000000000573E-003    -1.3861676392204308E-020
   5.0000000000000600E-003     1.8403076583511521E-020
   8.0000000000000626E-003     5.9384808318144242E-020
   1.1000000000000065E-002     6.0861067687149034E-020
   1.4000000000000068E-002    -2.0476593748048146E-020
   1.7000000000000015E-002    -1.5880573454846195E-019
   2.0000000000000018E-002    -2.2509337314726552E-019
   2.3000000000000020E-002    -5.7811556777418182E-020
   2.6000000000000023E-002     3.5517023654125462E-019
   2.9000000000000026E-002     7.1665222036769091E-019
   3.2000000000000028E-002     5.0934524756035522E-019
   3.5000000000000031E-002    -5.5072098191087165E-019
   3.8000000000000034E-002    -1.9388519248371200E-018
   4.1000000000000036E-002    -2.2336500820367363E-018
   4.4000000000000039E-002    -5.6233636670091889E-020
   4.7000000000000042E-002     4.2122578793557000E-018
   5.0000000000000044E-002     7.3357601781359460E-018
   5.3000000000000047E-002     4.5851035136687972E-018
   5.6000000000000050E-002    -5.9892525573386279E-018
   5.9000000000000052E-002    -1.8942430957646897E-017
   6.2000000000000055E-002    -2.1506879144681481E-017
   6.5000000000000058E-002    -2.0264011052553237E-018
   6.8000000000000060E-002     3.6112966784662230E-017
   7.1000000000000063E-002     6.6232136890128260E-017
   7.4000000000000066E-002     4.9172075139872300E-017
   7.7000000000000068E-002    -3.4183420102441448E-017
   8.0000000000000016E-002    -1.4737139421388627E-016
   8.3000000000000018E-002    -1.9512192649738387E-016
   8.6000000000000021E-002    -7.8907104554272549E-017
   8.9000000000000024E-002     2.0463887264960965E-016
   9.2000000000000026E-002     4.9292200272478065E-016
   9.5000000000000029E-002     5.0399292078663957E-016
   9.8000000000000032E-002     3.2370982599354829E-017
  0.10100000000000003         -8.0028608751155163E-016
  0.10400000000000004         -1.4467345827682140E-015
  0.10700000000000004         -1.1770864519439365E-015
  0.11000000000000004          3.5605656015785416E-016
  0.11300000000000004          2.5613523552876124E-015
  0.11600000000000005          3.8757825928021384E-015
  0.11900000000000005          2.5852356327427843E-015
  0.12200000000000005         -1.7529302361138840E-015
  0.12500000000000006         -7.2030711811412256E-015
  0.12800000000000006         -9.7845185709838225E-015
  0.13100000000000006         -5.7096877808010696E-015
  0.13400000000000006          5.3821176226520648E-015
  0.13700000000000007          1.8365744369178082E-014
  0.14000000000000007          2.3965604058602110E-014
  0.14300000000000007          1.3983239595980361E-014
  0.14600000000000007         -1.1926068873021497E-014
  0.14900000000000008         -4.2427258199925112E-014
  0.15200000000000008         -5.7670501663123192E-014
  0.15500000000000008         -3.9832052818881350E-014
  0.15800000000000008          1.3769524950447246E-014
  0.16100000000000009          8.3169755341701678E-014
  0.16400000000000009          1.3067860221338926E-013
  0.16700000000000009          1.1860962045762564E-013
  0.17000000000000010          3.1953654172194847E-014
  0.17300000000000010         -1.0671126852743626E-013
  0.17600000000000010         -2.4038696025721853E-013
  0.17899999999999999         -3.0003024266503643E-013
  0.18200000000000000         -2.3638470967157186E-013
  0.18500000000000000         -4.5651056602844070E-014
  0.18800000000000000          2.2363686693582884E-013
  0.19100000000000000          4.8515291292870521E-013
  0.19400000000000001          6.4283262020485368E-013
  0.19700000000000001          6.2001535367490129E-013
  0.20000000000000001          3.8065896791503087E-013
  0.20300000000000001         -5.9198831009350342E-014
  0.20600000000000002         -6.2709619757402896E-013
  0.20900000000000002         -1.1963007079095540E-012
  0.21200000000000002         -1.5994183391990289E-012
  0.21500000000000002         -1.6605912516408828E-012
  0.21800000000000003         -1.2468669139436032E-012
  0.22100000000000003         -3.2610399015449920E-013
  0.22400000000000003          9.9218370053056935E-013
  0.22700000000000004          2.4556309004119774E-012
  0.23000000000000004          3.7149950436303520E-012
  0.23300000000000004          4.4037863822903762E-012
  0.23600000000000004          4.2243648853212749E-012
  0.23900000000000005          3.0157895038978549E-012
  0.24200000000000005          7.9367343987401336E-013
  0.24500000000000005         -2.2330057907869875E-012
  0.24800000000000005         -5.6608862790671841E-012
  0.25100000000000006         -8.9111008330532620E-012
  0.25400000000000006         -1.1284612452298690E-011
  0.25700000000000006         -1.2069204655383954E-011
  0.26000000000000006         -1.0691377663474912E-011
  0.26300000000000007         -6.8767908883820564E-012
  0.26600000000000007         -7.6565237581776278E-013
  0.26900000000000007          7.0596155274378770E-012
  0.27200000000000008          1.5642382946368113E-011
  0.27500000000000008          2.3786174932475002E-011
  0.27800000000000008          3.0210952182689855E-011
  0.28100000000000008          3.3701124179455516E-011
  0.28400000000000009          3.3244223858750989E-011
  0.28700000000000009          2.8176269855989340E-011
  0.29000000000000009          1.8340360490984309E-011
  0.29300000000000009          4.2337017835206516E-012
  0.29600000000000010         -1.2908353499742550E-011
  0.29900000000000010         -3.1140819377467655E-011
  0.30200000000000010         -4.7968802787536188E-011
  0.30499999999999999         -6.0613807948650022E-011
  0.30800000000000000         -6.6335871867894664E-011
  0.31100000000000000         -6.2763380931243705E-011
  0.31400000000000000         -4.8205356883035236E-011
  0.31700000000000000         -2.1939837187430383E-011
  0.32000000000000001          1.5537942150282477E-011
  0.32300000000000001          6.2337061488185083E-011
  0.32600000000000001          1.1511046103475154E-010
  0.32900000000000001          1.6914501951498459E-010
  0.33200000000000002          2.1860700917327470E-010
  0.33500000000000002          2.5688751007515091E-010
  0.33800000000000002          2.7698812647919985E-010
  0.34100000000000003          2.7190459326007868E-010
  0.34400000000000003          2.3496083794564711E-010
  0.34700000000000003          1.6008156219915711E-010
  0.35000000000000003          4.2010154853690682E-011
  0.35300000000000004         -1.2356068914686278E-010
  0.35600000000000004         -3.4003912618877210E-010
  0.35900000000000004         -6.1012332252133653E-010
  0.36200000000000004         -9.3615578758397652E-010
  0.36500000000000005         -1.3207008024614662E-009
  0.36800000000000005         -1.7671240144421099E-009
  0.37100000000000005         -2.2803635620415230E-009
  0.37400000000000005         -2.8677076160445054E-009
  0.37700000000000006         -3.5395679319356474E-009
  0.38000000000000006         -4.3104401066996070E-009
  0.38300000000000006         -5.1995009346475898E-009
  0.38600000000000007         -6.2314339461831801E-009
  0.38900000000000007         -7.4370265173639248E-009
  0.39200000000000007         -8.8535562990851253E-009
  0.39500000000000007         -1.0525366277453916E-008
  0.39800000000000008         -1.2504315607694661E-008
  0.40100000000000008         -1.4850250740388592E-008
  0.40400000000000008         -1.7631744143120563E-008
  0.40700000000000008         -2.0926341706527828E-008
  0.41000000000000009         -2.4821719885383722E-008
  0.41300000000000009         -2.9416534034065509E-008
  0.41600000000000009         -3.4821645697773647E-008
  0.41900000000000009         -4.1161310778686474E-008
  0.42200000000000010         -4.8575391707188124E-008
  0.42500000000000010         -5.7221377148205769E-008
  0.42800000000000010         -6.7275664050704608E-008
  0.43100000000000011         -7.8936667382255127E-008
  0.43400000000000000         -9.2427758776768554E-008
  0.43700000000000000         -1.0799837169804178E-007
  0.44000000000000000         -1.2592887294357467E-007
  0.44300000000000000         -1.4653072773081602E-007
  0.44600000000000001         -1.7015250952108685E-007
  0.44900000000000001         -1.9718001075787681E-007
  0.45200000000000001         -2.2804012950200465E-007
  0.45500000000000002         -2.6320320309187941E-007
  0.45800000000000002         -3.0318584410861055E-007
  0.46100000000000002         -3.4855252181730582E-007
  0.46400000000000002         -3.9991921712505289E-007
  0.46700000000000003         -4.5795195642796699E-007
  0.47000000000000003         -5.2336825944652421E-007
  0.47300000000000003         -5.9694406420524743E-007
  0.47600000000000003         -6.7950594938770741E-007
  0.47900000000000004         -7.7194121629601025E-007
  0.48200000000000004         -8.7517871368814563E-007
  0.48500000000000004         -9.9021683044462975E-007
  0.48800000000000004         -1.1180937172091586E-006
  0.49100000000000005         -1.2599070836265759E-006
  0.49400000000000005         -1.4167781773204085E-006
  0.49700000000000005         -1.5898869972980147E-006
  0.50000000000000000         -1.7804351928643185E-006
  0.50300000000000011         -1.9896514690228684E-006
  0.50600000000000001         -2.2187788483523540E-006
  0.50900000000000012         -2.4690598699590749E-006
  0.51200000000000001         -2.7417321717910558E-006
  0.51500000000000012         -3.0380037570304614E-006
  0.51800000000000002         -3.3590264337528365E-006
  0.52100000000000013         -3.7058872823750524E-006
  0.52400000000000002         -4.0796437692367412E-006
  0.52700000000000014         -4.4811608598066566E-006
  0.53000000000000003         -4.9112195688638045E-006
  0.53300000000000014         -5.3704115629470189E-006
  0.53600000000000003         -5.8592209120556274E-006
  0.53900000000000015         -6.3777986860044197E-006
  0.54200000000000004         -6.9260641457689241E-006
  0.54500000000000015         -7.5037303955802202E-006
  0.54800000000000004         -8.1101813048974244E-006
  0.55100000000000016         -8.7443199527361494E-006
  0.55400000000000005         -9.4048612700640127E-006
  0.55700000000000016         -1.0090003773089415E-005
  0.56000000000000005         -1.0797505627384951E-005
  0.56299999999999994         -1.1524588586762933E-005
  0.56600000000000006         -1.2268143872670659E-005
  0.56899999999999995         -1.3024486451130438E-005
  0.57200000000000006         -1.3789352790116700E-005
  0.57499999999999996         -1.4557910850751611E-005
  0.57800000000000007         -1.5324825493741422E-005
  0.58099999999999996         -1.6084132218495135E-005
  0.58400000000000007         -1.6829604113422824E-005
  0.58699999999999997         -1.7554080884662017E-005
  0.59000000000000008         -1.8250023971879135E-005
  0.59299999999999997         -1.8909314288417355E-005
  0.59600000000000009         -1.9523696141050345E-005
  0.59899999999999998         -2.0084311189473064E-005
  0.60200000000000009         -2.0581765278575392E-005
  0.60500000000000020         -2.1006867858187362E-005
  0.60800000000000010         -2.1349559834525775E-005
  0.61100000000000021         -2.1600231688617693E-005
  0.61400000000000010         -2.1748999227423889E-005
  0.61700000000000021         -2.1786175957065691E-005
  0.62000000000000011         -2.1702110071591063E-005
  0.62300000000000022         -2.1487579920035383E-005
  0.62600000000000011         -2.1134013223671098E-005
  0.62900000000000000         -2.0632798048115826E-005
  0.63200000000000012         -1.9976857566604547E-005
  0.63500000000000001         -1.9159454018380059E-005
  0.63800000000000012         -1.8174485488265907E-005
  0.64100000000000001         -1.7017822814905338E-005
  0.64400000000000013         -1.5685949684207108E-005
  0.64700000000000002         -1.4177041738336533E-005
  0.65000000000000013         -1.2490688731035379E-005
  0.65300000000000002         -1.0627852649861042E-005
  0.65600000000000014         -8.5913633424175506E-006
  0.65900000000000003         -6.3856926131018649E-006
  0.66200000000000014         -4.0172301753872467E-006
  0.66500000000000004         -1.4940960601576327E-006
  0.66800000000000015          1.1734180099891359E-006
  0.67100000000000004          3.9735280483617850E-006
  0.67400000000000015          6.8925472569136699E-006
  0.67700000000000005          9.9150136849680952E-006
  0.68000000000000016          1.3023439873387178E-005
  0.68300000000000005          1.6199004780400548E-005
  0.68600000000000017          1.9421376279575399E-005
  0.68900000000000006          2.2669101831896959E-005
  0.69200000000000017          2.5919071104081946E-005
  0.69500000000000006          2.9147411868124811E-005
  0.69800000000000018          3.2329824784349625E-005
  0.70100000000000007          3.5440954123083702E-005
  0.70400000000000018          3.8455341578009513E-005
  0.70700000000000007          4.1347816817606123E-005
  0.71000000000000019          4.4093227101246032E-005
  0.71300000000000008          4.6666854201636348E-005
  0.71600000000000019          4.9044919579970399E-005
  0.71900000000000008          5.1204922998958032E-005
  0.72200000000000020          5.3125388373203982E-005
  0.72500000000000009          5.4786384498960672E-005
  0.72800000000000020          5.6170219047619357E-005
  0.73100000000000009          5.7261165755715339E-005
  0.73400000000000021          5.8045745803974382E-005
  0.73700000000000010          5.8512899968733507E-005
  0.74000000000000021          5.8654398544141195E-005
  0.74300000000000010          5.8464974443994192E-005
  0.74600000000000022          5.7941811152986020E-005
  0.74900000000000011          5.7085116164167749E-005
  0.75200000000000022          5.5898762609858067E-005
  0.75500000000000012          5.4388682168708208E-005
  0.75800000000000001          5.2564134757537391E-005
  0.76100000000000012          5.0437110337014324E-005
  0.76400000000000001          4.8022847485816857E-005
  0.76700000000000013          4.5338542697741772E-005
  0.77000000000000002          4.2403904597510824E-005
  0.77300000000000013          3.9241312703000002E-005
  0.77600000000000002          3.5874933024161969E-005
  0.77900000000000014          3.2330637180482107E-005
  0.78200000000000003          2.8634790645208122E-005
  0.78500000000000014          2.4816437519503002E-005
  0.78800000000000003          2.0904331273407193E-005
  0.79100000000000015          1.6928165365829670E-005
  0.79400000000000004          1.2917960722716127E-005
  0.79700000000000015          8.9035541582124237E-006
  0.80000000000000004          4.9142071814948138E-006
  0.80300000000000016          9.7837067782005120E-007
  0.80600000000000005         -2.8766178909506624E-006
  0.80900000000000016         -6.6237384631631920E-006
  0.81200000000000006         -1.0238921968560246E-005
  0.81500000000000017         -1.3699126852892925E-005
  0.81800000000000006         -1.6983369454631239E-005
  0.82100000000000017         -2.0072258224488359E-005
  0.82400000000000007         -2.2949591079550390E-005
  0.82700000000000018         -2.5600916222009685E-005
  0.83000000000000007         -2.8014342509365481E-005
  0.83300000000000018         -3.0180280492208882E-005
  0.83600000000000008         -3.2092094258326056E-005
  0.83900000000000019         -3.3746058338234802E-005
  0.84200000000000008         -3.5139571608714982E-005
  0.84500000000000020         -3.6273337558703452E-005
  0.84800000000000009         -3.7150154545723246E-005
  0.85100000000000020         -3.7774954182651594E-005
  0.85400000000000009         -3.8154167833163180E-005
  0.85700000000000021         -3.8296919420442308E-005
  0.86000000000000010         -3.8213734053445952E-005
  0.86300000000000021         -3.7916418932724117E-005
  0.86600000000000010         -3.7417924062809098E-005
  0.86900000000000022         -3.6732706398863855E-005
  0.87200000000000011         -3.5876120233056143E-005
  0.87500000000000022         -3.4863755190193056E-005
  0.87800000000000011         -3.3711735167715329E-005
  0.88100000000000001         -3.2437055009316175E-005
  0.88400000000000012         -3.1056540765428668E-005
  0.88700000000000001         -2.9586212734119753E-005
  0.89000000000000012         -2.8042519594554496E-005
  0.89300000000000002         -2.6441674790947135E-005
  0.89600000000000013         -2.4799002397196879E-005
  0.89900000000000002         -2.3128938682429372E-005
  0.90200000000000014         -2.1445797503706650E-005
  0.90500000000000003         -1.9762959150381892E-005
  0.90800000000000014         -1.8092295591347100E-005
  0.91100000000000003         -1.6444686093057625E-005
  0.91400000000000015         -1.4830527965858231E-005
  0.91700000000000004         -1.3259079573355192E-005
  0.92000000000000015         -1.1738068981496481E-005
  0.92300000000000004         -1.0274351896904508E-005
  0.92600000000000016         -8.8742655340022027E-006
  0.92900000000000005         -7.5425938303795820E-006
  0.93200000000000016         -6.2827867697983692E-006
  0.93500000000000005         -5.0977708346538497E-006
  0.93800000000000017         -3.9898808329841350E-006
  0.94100000000000006         -2.9601440857411043E-006
  0.94400000000000017         -2.0086210373807304E-006
  0.94700000000000006         -1.1351879141515771E-006
  0.95000000000000018         -3.3902648754751103E-007
  0.95300000000000007          3.8168380848769617E-007
  0.95600000000000018          1.0291773501263697E-006
  0.95900000000000007          1.6056398124694756E-006
  0.96200000000000019          2.1139625912953277E-006
  0.96500000000000008          2.5575949679192911E-006
  0.96800000000000019          2.9400909000741934E-006
  0.97100000000000009          3.2648342033788026E-006
  0.97400000000000020          3.5354411183048928E-006
  0.97700000000000009          3.7559572707293673E-006
  0.98000000000000020          3.9301358011480796E-006
  0.98300000000000010          4.0615506571151730E-006
  0.98600000000000021          4.1542197329433380E-006
  0.98900000000000010          4.2120572553652232E-006
  0.99200000000000021          4.2385338570083344E-006
  0.99500000000000011          4.2368440630631905E-006
  0.99800000000000022          4.2103923065877682E-006
   1.0010000000000001          4.1623822889611099E-006
   1.0040000000000002          4.0955825276995248E-006
   1.0070000000000001          4.0126375582528838E-006
   1.0100000000000000          3.9163330951507706E-006
   1.0130000000000001          3.8091483366607032E-006
   1.0160000000000000          3.6929335521809233E-006
   1.0190000000000001          3.5695984650725428E-006
   1.0220000000000000          3.4411651907695755E-006
   1.0250000000000001          3.3092624643739473E-006
   1.0280000000000000          3.1750199918373974E-006
   1.0310000000000001          3.0397398220644987E-006
   1.0340000000000000          2.9047588743915869E-006
   1.0370000000000001          2.7709384170504361E-006
   1.0400000000000000          2.6388371235703362E-006
   1.0430000000000001          2.5092553117390384E-006
   1.0460000000000000          2.3830637362430606E-006
   1.0490000000000002          2.2605207806884830E-006
   1.0520000000000000          2.1417212434378197E-006
   1.0550000000000002          2.0272221023118248E-006
   1.0580000000000001          1.9174601639487805E-006
   1.0610000000000002          1.8122671917404107E-006
   1.0640000000000001          1.7115282166714370E-006
   1.0670000000000002          1.6156702943217453E-006
   1.0700000000000001          1.5247478854713363E-006
   1.0730000000000002          1.4382473924380054E-006
   1.0760000000000001          1.3561437687151274E-006
   1.0790000000000002          1.2788461448626074E-006
   1.0820000000000001          1.2060975831610775E-006
   1.0850000000000002          1.1372395028033470E-006
   1.0880000000000001          1.0723417630746370E-006
   1.0910000000000002          1.0116882638607742E-006
   1.0940000000000001          9.5472126015212667E-007
   1.0970000000000002          9.0090927058358536E-007
