 -0.39999999999999997          0.0000000000000000     
 -0.39699999999999996          0.0000000000000000     
 -0.39399999999999996          0.0000000000000000     
 -0.39099999999999996          0.0000000000000000     
 -0.38799999999999996          0.0000000000000000     
 -0.38499999999999995          0.0000000000000000     
 -0.38199999999999995          0.0000000000000000     
 -0.37899999999999995          0.0000000000000000     
 -0.37599999999999995          0.0000000000000000     
 -0.37299999999999994          0.0000000000000000     
 -0.37000000000000000          0.0000000000000000     
 -0.36699999999999999          0.0000000000000000     
 -0.36399999999999999          0.0000000000000000     
 -0.36099999999999999          0.0000000000000000     
 -0.35799999999999998          0.0000000000000000     
 -0.35499999999999998          0.0000000000000000     
 -0.35199999999999998          0.0000000000000000     
 -0.34899999999999998          0.0000000000000000     
 -0.34599999999999997          0.0000000000000000     
 -0.34299999999999997          0.0000000000000000     
 -0.33999999999999997          0.0000000000000000     
 -0.33699999999999997          0.0000000000000000     
 -0.33399999999999996          0.0000000000000000     
 -0.33099999999999996          0.0000000000000000     
 -0.32799999999999996          0.0000000000000000     
 -0.32499999999999996          0.0000000000000000     
 -0.32199999999999995          0.0000000000000000     
 -0.31899999999999995          0.0000000000000000     
 -0.31599999999999995          0.0000000000000000     
 -0.31299999999999994          0.0000000000000000     
 -0.30999999999999994          0.0000000000000000     
 -0.30699999999999994          0.0000000000000000     
 -0.30399999999999994          0.0000000000000000     
 -0.30099999999999993          0.0000000000000000     
 -0.29799999999999993          0.0000000000000000     
 -0.29499999999999998          0.0000000000000000     
 -0.29199999999999998          0.0000000000000000     
 -0.28899999999999998          0.0000000000000000     
 -0.28599999999999998          0.0000000000000000     
 -0.28299999999999997          0.0000000000000000     
 -0.27999999999999997          0.0000000000000000     
 -0.27699999999999997          0.0000000000000000     
 -0.27399999999999997          0.0000000000000000     
 -0.27099999999999996          0.0000000000000000     
 -0.26799999999999996          0.0000000000000000     
 -0.26499999999999996          0.0000000000000000     
 -0.26199999999999996          0.0000000000000000     
 -0.25899999999999995          0.0000000000000000     
 -0.25599999999999995          0.0000000000000000     
 -0.25300000000000000          0.0000000000000000     
 -0.24999999999999997          0.0000000000000000     
 -0.24699999999999997          0.0000000000000000     
 -0.24399999999999997          0.0000000000000000     
 -0.24099999999999996          0.0000000000000000     
 -0.23799999999999996          0.0000000000000000     
 -0.23499999999999996          0.0000000000000000     
 -0.23199999999999996          0.0000000000000000     
 -0.22899999999999995          0.0000000000000000     
 -0.22599999999999995          0.0000000000000000     
 -0.22299999999999998          0.0000000000000000     
 -0.21999999999999997          0.0000000000000000     
 -0.21699999999999997          0.0000000000000000     
 -0.21399999999999997          0.0000000000000000     
 -0.21099999999999997          0.0000000000000000     
 -0.20799999999999996          0.0000000000000000     
 -0.20499999999999996          0.0000000000000000     
 -0.20199999999999996          0.0000000000000000     
 -0.19899999999999995          0.0000000000000000     
 -0.19599999999999995          0.0000000000000000     
 -0.19299999999999995          0.0000000000000000     
 -0.18999999999999997          0.0000000000000000     
 -0.18699999999999997          0.0000000000000000     
 -0.18399999999999997          0.0000000000000000     
 -0.18099999999999997          0.0000000000000000     
 -0.17799999999999996          0.0000000000000000     
 -0.17499999999999996          0.0000000000000000     
 -0.17199999999999996          0.0000000000000000     
 -0.16899999999999996          0.0000000000000000     
 -0.16599999999999995          0.0000000000000000     
 -0.16299999999999995          0.0000000000000000     
 -0.15999999999999998          0.0000000000000000     
 -0.15699999999999997          0.0000000000000000     
 -0.15399999999999997          0.0000000000000000     
 -0.15099999999999997          0.0000000000000000     
 -0.14799999999999996          0.0000000000000000     
 -0.14499999999999996          0.0000000000000000     
 -0.14199999999999996          0.0000000000000000     
 -0.13899999999999996          0.0000000000000000     
 -0.13599999999999995          0.0000000000000000     
 -0.13299999999999995          0.0000000000000000     
 -0.12999999999999995          0.0000000000000000     
 -0.12699999999999995          0.0000000000000000     
 -0.12399999999999994          0.0000000000000000     
 -0.12099999999999994          0.0000000000000000     
 -0.11799999999999994          0.0000000000000000     
 -0.11499999999999994          0.0000000000000000     
 -0.11199999999999993          0.0000000000000000     
 -0.10899999999999999          0.0000000000000000     
 -0.10599999999999998          0.0000000000000000     
 -0.10299999999999998          0.0000000000000000     
  -9.9999999999999978E-002     0.0000000000000000     
  -9.6999999999999975E-002     0.0000000000000000     
  -9.3999999999999972E-002     0.0000000000000000     
  -9.0999999999999970E-002     0.0000000000000000     
  -8.7999999999999967E-002     0.0000000000000000     
  -8.4999999999999964E-002     0.0000000000000000     
  -8.1999999999999962E-002     0.0000000000000000     
  -7.8999999999999959E-002     0.0000000000000000     
  -7.5999999999999956E-002     0.0000000000000000     
  -7.2999999999999954E-002     0.0000000000000000     
  -6.9999999999999951E-002    -1.9804238854709802E-041
  -6.6999999999999948E-002     1.8785478861983581E-041
  -6.3999999999999946E-002     1.0146645329602351E-040
  -6.0999999999999943E-002    -9.9757384687580358E-041
  -5.7999999999999940E-002    -2.0413021300618332E-040
  -5.4999999999999938E-002    -7.3963157177150236E-040
  -5.1999999999999935E-002     5.9494552525432883E-040
  -4.8999999999999932E-002     2.6864249659583966E-039
  -4.5999999999999985E-002    -9.0212113237611338E-041
  -4.2999999999999983E-002    -9.4809308444391085E-040
  -3.9999999999999980E-002     3.9383415791528228E-039
  -3.6999999999999977E-002     7.7925011237265305E-039
  -3.3999999999999975E-002     4.5337432938148206E-040
  -3.0999999999999972E-002    -2.0018613871841518E-038
  -2.7999999999999969E-002    -3.2802410294512746E-038
  -2.4999999999999967E-002     9.3390113734557780E-040
  -2.1999999999999964E-002     8.9144295346726924E-038
  -1.8999999999999961E-002     1.4193535959430855E-037
  -1.5999999999999959E-002    -3.6400018434775914E-039
  -1.2999999999999956E-002    -3.7853832467631941E-037
  -9.9999999999999534E-003    -6.1291632701485500E-037
  -6.9999999999999507E-003    -2.7995029987661975E-038
  -3.9999999999999480E-003     1.5406427871340053E-036
  -9.9999999999994538E-004     2.6416604373319100E-036
   2.0000000000000573E-003     4.7296256936456800E-037
   5.0000000000000600E-003    -5.9497821846354410E-036
   8.0000000000000626E-003    -1.1254433687845753E-035
   1.1000000000000065E-002    -4.0403116044661838E-036
   1.4000000000000068E-002     2.1459639183738436E-035
   1.7000000000000015E-002     4.6826070759886398E-035
   2.0000000000000018E-002     2.6848782277240726E-035
   2.3000000000000020E-002    -7.0017164947667702E-035
   2.6000000000000023E-002    -1.8747756145581459E-034
   2.9000000000000026E-002    -1.5321584839442391E-034
   3.2000000000000028E-002     1.9214395116894693E-034
   3.5000000000000031E-002     7.0939535087160495E-034
   3.8000000000000034E-002     7.7850734356064265E-034
   4.1000000000000036E-002    -3.4231402875168130E-034
   4.4000000000000039E-002    -2.4754647032291661E-033
   4.7000000000000042E-002    -3.5680031198615246E-033
   5.0000000000000044E-002    -4.5055131971809844E-034
   5.3000000000000047E-002     7.6493026896279059E-033
   5.6000000000000050E-002     1.4746391236682861E-032
   5.9000000000000052E-002     8.5122536499192320E-033
   6.2000000000000055E-002    -1.9114808588451303E-032
   6.5000000000000058E-002    -5.4285859937997156E-032
   6.8000000000000060E-002    -5.4072942715787336E-032
   7.1000000000000063E-002     2.6756212445823007E-032
   7.4000000000000066E-002     1.7254545769236201E-031
   7.7000000000000068E-002     2.5405768565220298E-031
   8.0000000000000016E-002     7.3876279013890892E-032
   8.3000000000000018E-002    -4.3760016272618176E-031
   8.6000000000000021E-002    -9.7132793729977315E-031
   8.9000000000000024E-002    -8.1515164127051336E-031
   9.2000000000000026E-002     6.5036936743527298E-031
   9.5000000000000029E-002     3.0088986624810771E-030
   9.8000000000000032E-002     4.1654343876106618E-030
  0.10100000000000003          1.1817902903623259E-030
  0.10400000000000004         -6.8596207986140523E-030
  0.10700000000000004         -1.5413184370108113E-029
  0.11000000000000004         -1.4174213866806391E-029
  0.11300000000000004          6.3401553302290355E-030
  0.11600000000000005          4.2180059178282859E-029
  0.11900000000000005          6.6364554174376986E-029
  0.12200000000000005          3.6921045992078481E-029
  0.12500000000000006         -6.8987040552049443E-029
  0.12800000000000006         -2.0845716665770291E-028
  0.13100000000000006         -2.5506165408200151E-028
  0.13400000000000006         -5.8354996371776468E-029
  0.13700000000000007          4.1112677921129506E-028
  0.14000000000000007          9.0973962792986695E-028
  0.14300000000000007          9.2019903628787594E-028
  0.14600000000000007         -5.5900698662403945E-029
  0.14900000000000008         -1.9526022820727661E-027
  0.15200000000000008         -3.6792377012789005E-027
  0.15500000000000008         -3.2914671407400017E-027
  0.15800000000000008          8.2512397476039725E-028
  0.16100000000000009          8.0559341255751394E-027
  0.16400000000000009          1.4181858155444492E-026
  0.16700000000000009          1.2278964758595186E-026
  0.17000000000000010         -3.0822358893323270E-027
  0.17300000000000010         -2.9544328403907661E-026
  0.17600000000000010         -5.2609524533788414E-026
  0.17899999999999999         -4.8602289704284896E-026
  0.18200000000000000          2.0294410249803404E-027
  0.18500000000000000          9.4655917042968158E-026
  0.18800000000000000          1.8544120139385526E-025
  0.19100000000000000          1.9730524646376036E-025
  0.19400000000000001          5.6997585414952986E-026
  0.19700000000000001         -2.4414022085419460E-025
  0.20000000000000001         -5.9618889666606898E-025
  0.20300000000000001         -7.6851322336557469E-025
  0.20600000000000002         -4.9512092615736781E-025
  0.20900000000000002          3.5726299430206778E-025
  0.21200000000000002          1.6038209093556280E-024
  0.21500000000000002          2.6550824907206260E-024
  0.21800000000000003          2.6473515503187701E-024
  0.22100000000000003          8.3511367484590340E-025
  0.22400000000000003         -2.8502975654012948E-024
  0.22700000000000004         -7.3273846629725551E-024
  0.23000000000000004         -1.0313677833719363E-023
  0.23300000000000004         -8.9659413733635369E-024
  0.23600000000000004         -1.2228013850349306E-024
  0.23900000000000005          1.2530153137144779E-023
  0.24200000000000005          2.8227815294773868E-023
  0.24500000000000005          3.8231164284454089E-023
  0.24800000000000005          3.3421199259521418E-023
  0.25100000000000006          7.2168731749696601E-024
  0.25400000000000006         -3.9565138642187077E-023
  0.25700000000000006         -9.5038082481442480E-023
  0.26000000000000006         -1.3617139705651364E-022
  0.26300000000000007         -1.3411360321560155E-022
  0.26600000000000007         -6.4975081218414252E-023
  0.26900000000000007          7.6375844224715386E-023
  0.27200000000000008          2.6440087799080289E-022
  0.27500000000000008          4.3903260445183942E-022
  0.27800000000000008          5.1512633942260431E-022
  0.28100000000000008          4.0698389059192645E-022
  0.28400000000000009          6.4155325099647384E-023
  0.28700000000000009         -4.9134336934801865E-022
  0.29000000000000009         -1.1406162345460605E-021
  0.29300000000000009         -1.6709269731764850E-021
  0.29600000000000010         -1.8159158887499761E-021
  0.29900000000000010         -1.3325526439231671E-021
  0.30200000000000010         -1.0095824340672141E-022
  0.30499999999999999          1.7797824103018418E-021
  0.30800000000000000          3.9347774221759817E-021
  0.31100000000000000          5.7293027501793726E-021
  0.31400000000000000          6.3788145377057901E-021
  0.31700000000000000          5.1505859398403186E-021
  0.32000000000000001          1.6242903016465349E-021
  0.32300000000000001         -4.0505492518028674E-021
  0.32600000000000001         -1.0981561458765158E-020
  0.32900000000000001         -1.7526484489195983E-020
  0.33200000000000002         -2.1509626151031865E-020
  0.33500000000000002         -2.0671628832381815E-020
  0.33800000000000002         -1.3298123480226897E-020
  0.34100000000000003          1.0937375456682433E-021
  0.34400000000000003          2.1183236104967938E-020
  0.34700000000000003          4.3579525933944076E-020
  0.35000000000000003          6.3024293513860998E-020
  0.35300000000000004          7.3150449649945890E-020
  0.35600000000000004          6.7765904083526350E-020
  0.35900000000000004          4.2490956425483336E-020
  0.36200000000000004         -3.5533918797331306E-021
  0.36500000000000005         -6.6400217994971741E-020
  0.36800000000000005         -1.3664799429364491E-019
  0.37100000000000005         -1.9997177804716916E-019
  0.37400000000000005         -2.3891361139647187E-019
  0.37700000000000006         -2.3589350953132525E-019
  0.38000000000000006         -1.7710271364570139E-019
  0.38300000000000006         -5.6674186900642841E-020
  0.38600000000000007          1.1967408695354702E-019
  0.38900000000000007          3.3241019609944514E-019
  0.39200000000000007          5.4818081181518835E-019
  0.39500000000000007          7.2258672453794256E-019
  0.39800000000000008          8.0589447990723441E-019
  0.40100000000000008          7.5132311046800835E-019
  0.40400000000000008          5.2498828843306435E-019
  0.40700000000000008          1.1608036103894679E-019
  0.41000000000000009         -4.5451077081364925E-019
  0.41300000000000009         -1.1290474321952257E-018
  0.41600000000000009         -1.8130259830391677E-018
  0.41900000000000009         -2.3817871679088319E-018
  0.42200000000000010         -2.6941286392233099E-018
  0.42500000000000010         -2.6124060464383759E-018
  0.42800000000000010         -2.0273926161853923E-018
  0.43100000000000011         -8.8503004072654381E-019
  0.43400000000000000          7.8880309320320882E-019
  0.43700000000000000          2.8699840601733602E-018
  0.44000000000000000          5.1288931248433173E-018
  0.44300000000000000          7.2381841912623131E-018
  0.44600000000000001          8.7982704186296588E-018
  0.44900000000000001          9.3811528631504813E-018
  0.45200000000000001          8.5905842371423514E-018
  0.45500000000000002          6.1336003492330964E-018
  0.45800000000000002          1.8955069567712560E-018
  0.46100000000000002         -3.9921489071015008E-018
  0.46400000000000002         -1.1102590717184880E-017
  0.46700000000000003         -1.8696131340234065E-017
  0.47000000000000003         -2.5744409613896425E-017
  0.47300000000000003         -3.1003976021488742E-017
  0.47600000000000003         -3.3141130402360700E-017
  0.47900000000000004         -3.0903146505346671E-017
  0.48200000000000004         -2.3323260167233835E-017
  0.48500000000000004         -9.9388577337968607E-018
  0.48800000000000004          9.0045522954737263E-018
  0.49100000000000005          3.2395636895325744E-017
  0.49400000000000005          5.8179143949751313E-017
  0.49700000000000005          8.3387933696849621E-017
  0.50000000000000000          1.0430796841445776E-016
  0.50300000000000011          1.1678682506643989E-016
  0.50600000000000001          1.1667979815497215E-016
  0.50900000000000012          1.0040804079955168E-016
  0.51200000000000001          6.5583174416592438E-017
  0.51500000000000012          1.1633734192076711E-017
  0.51800000000000002         -5.9646543107125323E-017
  0.52100000000000013         -1.4371655074375613E-016
  0.52400000000000002         -2.3315923126306957E-016
  0.52700000000000014         -3.1788273455693465E-016
  0.53000000000000003         -3.8570393994282964E-016
  0.53300000000000014         -4.2333329797693003E-016
  0.53600000000000003         -4.1773516647630575E-016
  0.53900000000000015         -3.5778870015459256E-016
  0.54200000000000004         -2.3612134557209823E-016
  0.54500000000000015         -5.0938769766819047E-017
  0.54800000000000004          1.9236285477296338E-016
  0.55100000000000016          4.8004117644468436E-016
  0.55400000000000005          7.8954270755811727E-016
  0.55700000000000016          1.0899447851190338E-015
  0.56000000000000005          1.3434573657414707E-015
  0.56299999999999994          1.5080599193495105E-015
  0.56600000000000006          1.5412364571257806E-015
  0.56899999999999995          1.4046442142695490E-015
  0.57200000000000006          1.0694147416135247E-015
  0.57499999999999996          5.2165013684460951E-016
  0.57800000000000007         -2.3243179739280897E-016
  0.58099999999999996         -1.1623391679587546E-015
  0.58400000000000007         -2.2107899373280971E-015
  0.58699999999999997         -3.2934734578942356E-015
  0.59000000000000008         -4.3016114408581851E-015
  0.59299999999999997         -5.1076673601167523E-015
  0.59600000000000009         -5.5743069641738988E-015
  0.59899999999999998         -5.5663928725545694E-015
  0.60200000000000009         -4.9654550379319011E-015
  0.60500000000000020         -3.6857063171602936E-015
  0.60800000000000010         -1.6903478445122015E-015
  0.61100000000000021          9.9341278744019211E-016
  0.61400000000000010          4.2623786824530276E-015
  0.61700000000000021          7.9302162715319123E-015
  0.62000000000000011          1.1726868019486619E-014
  0.62300000000000022          1.5305954797897915E-014
  0.62600000000000011          1.8261145273867132E-014
  0.62900000000000000          2.0151762945686065E-014
  0.63200000000000012          2.0537193501441208E-014
  0.63500000000000001          1.9018645169943398E-014
  0.63800000000000012          1.5285931546524407E-014
  0.64100000000000001          9.1660146526141683E-015
  0.64400000000000013          6.6921939006310450E-016
  0.64700000000000002         -9.9715404032380415E-015
  0.65000000000000013         -2.2273423097669504E-014
  0.65300000000000002         -3.5493059045854118E-014
  0.65600000000000014         -4.8636939964468597E-014
  0.65900000000000003         -6.0496105845666547E-014
  0.66200000000000014         -6.9706892413881180E-014
  0.66500000000000004         -7.4837575191138171E-014
  0.66800000000000015         -7.4498683335117215E-014
  0.67100000000000004         -6.7472062016615338E-014
  0.67400000000000015         -5.2851565428025608E-014
  0.67700000000000005         -3.0185647416767828E-014
  0.68000000000000016          3.8942107632766526E-016
  0.68300000000000005          3.8038681097569257E-014
  0.68600000000000017          8.1153228702181310E-014
  0.68900000000000006          1.2732344773104361E-013
  0.69200000000000017          1.7337200581074803E-013
  0.69500000000000006          2.1545498756268933E-013
  0.69800000000000018          2.4923629618247084E-013
  0.70100000000000007          2.7013448436713885E-013
  0.70400000000000018          2.7363679834029002E-013
  0.70700000000000007          2.5566741645181739E-013
  0.71000000000000019          2.1299243170656823E-013
  0.71300000000000008          1.4363650273315035E-013
  0.71600000000000019          4.7282301024149655E-014
  0.71900000000000008         -7.4380944024075090E-014
  0.72200000000000020         -2.1739402143616094E-013
  0.72500000000000009         -3.7538438910041300E-013
  0.72800000000000020         -5.3957440774385730E-013
  0.73100000000000009         -6.9896670059108135E-013
  0.73400000000000021         -8.4072361389269643E-013
  0.73700000000000010         -9.5074692886730585E-013
  0.74000000000000021         -1.0144513793460441E-012
  0.74300000000000010         -1.0177081495089181E-012
  0.74600000000000022         -9.4792296661467643E-013
  0.74900000000000011         -7.9519392273016067E-013
  0.75200000000000022         -5.5348360627974078E-013
  0.75500000000000012         -2.2172710210468387E-013
  0.75800000000000001          1.9521319969436985E-013
  0.76100000000000012          6.8583169809329365E-013
  0.76400000000000001          1.2315950409184940E-012
  0.76700000000000013          1.8069658735777780E-012
  0.77000000000000002          2.3799043548048309E-012
  0.77300000000000013          2.9128890801449754E-012
  0.77600000000000002          3.3644812710474828E-012
  0.77900000000000014          3.6914168560208823E-012
  0.78200000000000003          3.8511857324935522E-012
  0.78500000000000014          3.8050134591823039E-012
  0.78800000000000003          3.5211253737528064E-012
  0.79100000000000015          2.9781548063403848E-012
  0.79400000000000004          2.1684971468927856E-012
  0.79700000000000015          1.1014296794342805E-012
  0.80000000000000004         -1.9423862976418047E-013
  0.80300000000000016         -1.6681733628792600E-012
  0.80600000000000005         -3.2474157847115587E-012
  0.80900000000000016         -4.8363331009498707E-012
  0.81200000000000006         -6.3177761812007167E-012
  0.81500000000000017         -7.5555582217664007E-012
  0.81800000000000006         -8.3982647134552362E-012
  0.82100000000000017         -8.6844245306551237E-012
  0.82400000000000007         -8.2488965626887068E-012
  0.82700000000000018         -6.9303688061834580E-012
  0.83000000000000007         -4.5797056595682259E-012
  0.83300000000000018         -1.0688923152119060E-012
  0.83600000000000008          3.6997759588990149E-012
  0.83900000000000019          9.7846053637687331E-012
  0.84200000000000008          1.7195864637498430E-011
  0.84500000000000020          2.5887986232256640E-011
  0.84800000000000009          3.5752902281581413E-011
  0.85100000000000020          4.6614754446586352E-011
  0.85400000000000009          5.8226238231762749E-011
  0.85700000000000021          7.0266436242847501E-011
  0.86000000000000010          8.2340342532970098E-011
  0.86300000000000021          9.3979684371572471E-011
  0.86600000000000010          1.0464460026325415E-010
  0.86900000000000022          1.1372589118698213E-010
  0.87200000000000011          1.2054692528159659E-010
  0.87500000000000022          1.2436434767081487E-010
  0.87800000000000011          1.2436669016220706E-010
  0.88100000000000001          1.1966978441441192E-010
  0.88400000000000012          1.0930768637587462E-010
  0.88700000000000001          9.2217751362456967E-011
  0.89000000000000012          6.7218537432977123E-011
  0.89300000000000002          3.2979180257795533E-011
  0.89600000000000013         -1.2020948714264706E-011
  0.89900000000000002         -6.9543696002977605E-011
  0.90200000000000014         -1.4165698874481922E-010
  0.90500000000000003         -2.3081204145016605E-010
  0.90800000000000014         -3.3993682136454202E-010
  0.91100000000000003         -4.7254618012246484E-010
  0.91400000000000015         -6.3286690282902320E-010
  0.91700000000000004         -8.2598422881838666E-010
  0.92000000000000015         -1.0580059892772347E-009
  0.92300000000000004         -1.3362489198321423E-009
  0.92600000000000016         -1.6694459895867811E-009
  0.92900000000000005         -2.0679785253432891E-009
  0.93200000000000016         -2.5441351764919584E-009
  0.93500000000000005         -3.1123917854839191E-009
  0.93800000000000017         -3.7897331823836508E-009
  0.94100000000000006         -4.5959877934836817E-009
  0.94400000000000017         -5.5542201278597544E-009
  0.94700000000000006         -6.6911366055577776E-009
  0.95000000000000018         -8.0375508707324223E-009
  0.95300000000000007         -9.6288710798435772E-009
  0.95600000000000018         -1.1505660648219109E-008
  0.95900000000000007         -1.3714232545981562E-008
  0.96200000000000019         -1.6307259362368942E-008
  0.96500000000000008         -1.9344532710347732E-008
  0.96800000000000019         -2.2893653971282124E-008
  0.97100000000000009         -2.7030878766208372E-008
  0.97400000000000020         -3.1841972120130639E-008
  0.97700000000000009         -3.7423103174842708E-008
  0.98000000000000020         -4.3881861858062793E-008
  0.98300000000000010         -5.1338208888012546E-008
  0.98600000000000021         -5.9925563004305581E-008
  0.98900000000000010         -6.9791856300923543E-008
  0.99200000000000021         -8.1100635452045872E-008
  0.99500000000000011         -9.4032167228993903E-008
  0.99800000000000022         -1.0878446027955535E-007
   1.0010000000000001         -1.2557450294714113E-007
   1.0040000000000002         -1.4463901752232417E-007
   1.0070000000000001         -1.6623542590378456E-007
   1.0100000000000000         -1.9064277213538026E-007
   1.0130000000000001         -2.1816225787572505E-007
   1.0160000000000000         -2.4911783974222892E-007
   1.0190000000000001         -2.8385624476171543E-007
   1.0220000000000000         -3.2274722372745078E-007
   1.0250000000000001         -3.6618296956160617E-007
   1.0280000000000000         -4.1457780207319685E-007
   1.0310000000000001         -4.6836684038899726E-007
   1.0340000000000000         -5.2800447378822386E-007
   1.0370000000000001         -5.9396264758931775E-007
   1.0400000000000000         -6.6672783889593987E-007
   1.0430000000000001         -7.4679871149963062E-007
   1.0460000000000000         -8.3468157226937457E-007
   1.0490000000000002         -9.3088590263430470E-007
   1.0520000000000000         -1.0359195988764413E-006
   1.0550000000000002         -1.1502833072697626E-006
   1.0580000000000001         -1.2744637134775722E-006
   1.0610000000000002         -1.4089249386560867E-006
   1.0640000000000001         -1.5541012288515234E-006
   1.0670000000000002         -1.7103885180092342E-006
   1.0700000000000001         -1.8781327630652832E-006
   1.0730000000000002         -2.0576217751599426E-006
   1.0760000000000001         -2.2490723987376194E-006
   1.0790000000000002         -2.4526189754150833E-006
   1.0820000000000001         -2.6683017560561692E-006
   1.0850000000000002         -2.8960523035857262E-006
   1.0880000000000001         -3.1356838637798339E-006
   1.0910000000000002         -3.3868746434006408E-006
   1.0940000000000001         -3.6491574431804100E-006
   1.0970000000000002         -3.9219069164893951E-006
