 -0.39999999999999997          0.0000000000000000     
 -0.39699999999999996          0.0000000000000000     
 -0.39399999999999996          0.0000000000000000     
 -0.39099999999999996          0.0000000000000000     
 -0.38799999999999996          0.0000000000000000     
 -0.38499999999999995          0.0000000000000000     
 -0.38199999999999995          0.0000000000000000     
 -0.37899999999999995          0.0000000000000000     
 -0.37599999999999995          0.0000000000000000     
 -0.37299999999999994          0.0000000000000000     
 -0.37000000000000000          0.0000000000000000     
 -0.36699999999999999          0.0000000000000000     
 -0.36399999999999999          0.0000000000000000     
 -0.36099999999999999          0.0000000000000000     
 -0.35799999999999998          0.0000000000000000     
 -0.35499999999999998          0.0000000000000000     
 -0.35199999999999998          0.0000000000000000     
 -0.34899999999999998          0.0000000000000000     
 -0.34599999999999997          0.0000000000000000     
 -0.34299999999999997          0.0000000000000000     
 -0.33999999999999997          0.0000000000000000     
 -0.33699999999999997          0.0000000000000000     
 -0.33399999999999996          0.0000000000000000     
 -0.33099999999999996          0.0000000000000000     
 -0.32799999999999996          0.0000000000000000     
 -0.32499999999999996          0.0000000000000000     
 -0.32199999999999995          0.0000000000000000     
 -0.31899999999999995          0.0000000000000000     
 -0.31599999999999995          0.0000000000000000     
 -0.31299999999999994          0.0000000000000000     
 -0.30999999999999994          0.0000000000000000     
 -0.30699999999999994          0.0000000000000000     
 -0.30399999999999994          0.0000000000000000     
 -0.30099999999999993          0.0000000000000000     
 -0.29799999999999993          0.0000000000000000     
 -0.29499999999999998          0.0000000000000000     
 -0.29199999999999998          0.0000000000000000     
 -0.28899999999999998          0.0000000000000000     
 -0.28599999999999998          0.0000000000000000     
 -0.28299999999999997          0.0000000000000000     
 -0.27999999999999997          0.0000000000000000     
 -0.27699999999999997          0.0000000000000000     
 -0.27399999999999997          0.0000000000000000     
 -0.27099999999999996          0.0000000000000000     
 -0.26799999999999996          0.0000000000000000     
 -0.26499999999999996          0.0000000000000000     
 -0.26199999999999996          0.0000000000000000     
 -0.25899999999999995          0.0000000000000000     
 -0.25599999999999995          0.0000000000000000     
 -0.25300000000000000          0.0000000000000000     
 -0.24999999999999997          0.0000000000000000     
 -0.24699999999999997          0.0000000000000000     
 -0.24399999999999997          0.0000000000000000     
 -0.24099999999999996          0.0000000000000000     
 -0.23799999999999996          0.0000000000000000     
 -0.23499999999999996          0.0000000000000000     
 -0.23199999999999996          0.0000000000000000     
 -0.22899999999999995          0.0000000000000000     
 -0.22599999999999995          0.0000000000000000     
 -0.22299999999999998          0.0000000000000000     
 -0.21999999999999997          0.0000000000000000     
 -0.21699999999999997          0.0000000000000000     
 -0.21399999999999997          0.0000000000000000     
 -0.21099999999999997          0.0000000000000000     
 -0.20799999999999996          0.0000000000000000     
 -0.20499999999999996          0.0000000000000000     
 -0.20199999999999996          0.0000000000000000     
 -0.19899999999999995          0.0000000000000000     
 -0.19599999999999995          0.0000000000000000     
 -0.19299999999999995          0.0000000000000000     
 -0.18999999999999997          0.0000000000000000     
 -0.18699999999999997          0.0000000000000000     
 -0.18399999999999997          0.0000000000000000     
 -0.18099999999999997          0.0000000000000000     
 -0.17799999999999996          0.0000000000000000     
 -0.17499999999999996          0.0000000000000000     
 -0.17199999999999996          0.0000000000000000     
 -0.16899999999999996          0.0000000000000000     
 -0.16599999999999995          0.0000000000000000     
 -0.16299999999999995          0.0000000000000000     
 -0.15999999999999998          0.0000000000000000     
 -0.15699999999999997          0.0000000000000000     
 -0.15399999999999997          0.0000000000000000     
 -0.15099999999999997          0.0000000000000000     
 -0.14799999999999996          0.0000000000000000     
 -0.14499999999999996          0.0000000000000000     
 -0.14199999999999996          5.9857660776989875E-042
 -0.13899999999999996          1.5486351286174406E-042
 -0.13599999999999995         -2.8684184460452384E-040
 -0.13299999999999995         -1.9362335912383810E-040
 -0.12999999999999995          5.7261027873735485E-040
 -0.12699999999999995          9.9411839558896071E-040
 -0.12399999999999994         -9.9577774833978776E-041
 -0.12099999999999994         -2.8695834270941109E-039
 -0.11799999999999994         -2.3804290138897599E-039
 -0.11499999999999994          5.9626206799314739E-039
 -0.11199999999999993          1.5250703130484544E-038
 -0.10899999999999999          1.4296998197536672E-039
 -0.10599999999999998         -4.3273621183112046E-038
 -0.10299999999999998         -7.0505160200871882E-038
  -9.9999999999999978E-002     3.8299115694658937E-038
  -9.6999999999999975E-002     2.2878066710689376E-037
  -9.3999999999999972E-002     2.0211336421050917E-037
  -9.0999999999999970E-002    -3.6408475943724416E-037
  -8.7999999999999967E-002    -1.0518580456853054E-036
  -8.4999999999999964E-002    -4.8235712337059964E-037
  -8.1999999999999962E-002     2.1849894539085201E-036
  -7.8999999999999959E-002     4.4451661399054670E-036
  -7.5999999999999956E-002     4.1730909634369192E-037
  -7.2999999999999954E-002    -1.1447921722876604E-035
  -6.9999999999999951E-002    -1.7666877716239483E-035
  -6.6999999999999948E-002     4.8456116960254594E-036
  -6.3999999999999946E-002     5.3940328190175359E-035
  -6.0999999999999943E-002     6.7081925472462981E-035
  -5.7999999999999940E-002    -4.1527689412525168E-035
  -5.4999999999999938E-002    -2.3826875655751779E-034
  -5.1999999999999935E-002    -2.5291965196761290E-034
  -4.8999999999999932E-002     2.3375368808046559E-034
  -4.5999999999999985E-002     1.0130507382944865E-033
  -4.2999999999999983E-002     9.5985361963790304E-034
  -3.9999999999999980E-002    -1.1068245561824780E-033
  -3.6999999999999977E-002    -4.1709297641372811E-033
  -3.3999999999999975E-002    -3.7323928624385580E-033
  -3.0999999999999972E-002     4.6425379402111328E-033
  -2.7999999999999969E-002     1.6737161636434705E-032
  -2.4999999999999967E-002     1.5054295755582091E-032
  -2.1999999999999964E-002    -1.7568330918940274E-032
  -1.8999999999999961E-002    -6.5553442344439352E-032
  -1.5999999999999959E-002    -6.2584815989375939E-032
  -1.2999999999999956E-002     5.9271617865063688E-032
  -9.9999999999999534E-003     2.4937890352329950E-031
  -6.9999999999999507E-003     2.6417095149479599E-031
  -3.9999999999999480E-003    -1.6870147111277858E-031
  -9.9999999999994538E-004    -9.1393557719804875E-031
   2.0000000000000573E-003    -1.1102008545743968E-030
   5.0000000000000600E-003     3.3101397787774180E-031
   8.0000000000000626E-003     3.1839746363834447E-030
   1.1000000000000065E-002     4.5523702855372179E-030
   1.4000000000000068E-002     1.8052938717640049E-031
   1.7000000000000015E-002    -1.0323406725635957E-029
   2.0000000000000018E-002    -1.7887709507660134E-029
   2.3000000000000020E-002    -6.5096249548899631E-030
   2.6000000000000023E-002     3.0038270473021493E-029
   2.9000000000000026E-002     6.6193345629423158E-029
   3.2000000000000028E-002     4.5050130820105845E-029
   3.5000000000000031E-002    -7.2412809013939418E-029
   3.8000000000000034E-002    -2.2615629298341819E-028
   4.1000000000000036E-002    -2.2849455102539392E-028
   4.4000000000000039E-002     1.0796919728717426E-028
   4.7000000000000042E-002     6.9357423884484927E-028
   5.0000000000000044E-002     9.6923307679626996E-028
   5.3000000000000047E-002     1.7131814518592589E-028
   5.6000000000000050E-002    -1.8120708716516257E-027
   5.9000000000000052E-002    -3.5464129669543022E-027
   6.2000000000000055E-002    -2.3239389781146452E-027
   6.5000000000000058E-002     3.5069173905041548E-027
   6.8000000000000060E-002     1.1131695586551054E-026
   7.1000000000000063E-002     1.2237273085256820E-026
   7.4000000000000066E-002    -1.7759537870174997E-027
   7.7000000000000068E-002    -2.8752029645172346E-026
   8.0000000000000016E-002    -4.7353308026782124E-026
   8.3000000000000018E-002    -2.4765355504002243E-026
   8.6000000000000021E-002     5.3192097735836948E-026
   8.9000000000000024E-002     1.4542809719274883E-025
   9.2000000000000026E-002     1.5173628942116526E-025
   9.5000000000000029E-002    -2.1996675377280476E-026
   9.8000000000000032E-002    -3.4344034319842145E-025
  0.10100000000000003         -5.7159156354818446E-025
  0.10400000000000004         -3.4575597867863450E-025
  0.10700000000000004          5.0283609482768430E-025
  0.11000000000000004          1.5787765667281140E-024
  0.11300000000000004          1.8634402203882135E-024
  0.11600000000000005          3.1010968421093099E-025
  0.11900000000000005         -3.0102259187242549E-024
  0.12200000000000005         -6.0143459852057753E-024
  0.12500000000000006         -5.1537637004153369E-024
  0.12800000000000006          1.9983272637047715E-024
  0.13100000000000006          1.3225491310638209E-023
  0.13400000000000006          2.0181468873759991E-023
  0.13700000000000007          1.2096841614661449E-023
  0.14000000000000007         -1.5097785194792018E-023
  0.14300000000000007         -4.9360444474046651E-023
  0.14600000000000007         -6.2074787608934788E-023
  0.14900000000000008         -2.3650248160796439E-023
  0.15200000000000008          6.8312739072681219E-023
  0.15500000000000008          1.6641914306427622E-022
  0.15800000000000008          1.8190836286574645E-022
  0.16100000000000009          3.7897684696043545E-023
  0.16400000000000009         -2.5097627988024069E-022
  0.16700000000000009         -5.2718758344336676E-022
  0.17000000000000010         -5.3207540126275474E-022
  0.17300000000000010         -6.4793928288579595E-023
  0.17600000000000010          8.0396405352291527E-022
  0.17899999999999999          1.6107484652965259E-021
  0.18200000000000000          1.6289320955101411E-021
  0.18500000000000000          2.9499225169839516E-022
  0.18800000000000000         -2.2339357657787981E-021
  0.19100000000000000         -4.7517042468132616E-021
  0.19400000000000001         -5.2849994463266101E-021
  0.19700000000000001         -2.1122288114232717E-021
  0.20000000000000001          4.8248791375840243E-021
  0.20300000000000001          1.2911262533039415E-020
  0.20600000000000002          1.7152088926255289E-020
  0.20900000000000002          1.2222596713851724E-020
  0.21200000000000002         -4.2075879209054045E-021
  0.21500000000000002         -2.8373401388868716E-020
  0.21800000000000003         -4.9539918763955984E-020
  0.22100000000000003         -5.2880174848945537E-020
  0.22400000000000003         -2.6103480430574991E-020
  0.22700000000000004          3.2248602599045037E-020
  0.23000000000000004          1.0664113490602719E-019
  0.23300000000000004          1.6468790730442879E-019
  0.23600000000000004          1.6617070173006161E-019
  0.23900000000000005          8.0078779424410229E-020
  0.24200000000000005         -9.5433257944669991E-020
  0.24500000000000005         -3.1865868654489834E-019
  0.24800000000000005         -5.0465686096064205E-019
  0.25100000000000006         -5.4606206196210477E-019
  0.25400000000000006         -3.5290738773456679E-019
  0.25700000000000006          9.9207676657205246E-020
  0.26000000000000006          7.3092134292989534E-019
  0.26300000000000007          1.3511980349576497E-018
  0.26600000000000007          1.6937444273637951E-018
  0.26900000000000007          1.4975104756840334E-018
  0.27200000000000008          6.1282501634973781E-019
  0.27500000000000008         -9.0077338336321284E-019
  0.27800000000000008         -2.7246725645469313E-018
  0.28100000000000008         -4.3109280752129239E-018
  0.28400000000000009         -5.0019563466462147E-018
  0.28700000000000009         -4.2219467186655787E-018
  0.29000000000000009         -1.6942434561897862E-018
  0.29300000000000009          2.3784677678630789E-018
  0.29600000000000010          7.2356735052370524E-018
  0.29900000000000010          1.1629664870886312E-017
  0.30200000000000010          1.4059503301134614E-017
  0.30499999999999999          1.3139428189380052E-017
  0.30800000000000000          8.0291395225026470E-018
  0.31100000000000000         -1.1795509129902918E-018
  0.31400000000000000         -1.3235462355007798E-017
  0.31700000000000000         -2.5757158376104988E-017
  0.32000000000000001         -3.5565672367222809E-017
  0.32300000000000001         -3.9297859619214347E-017
  0.32600000000000001         -3.4201126817777854E-017
  0.32900000000000001         -1.8949869668860542E-017
  0.33200000000000002          5.7055280897978607E-018
  0.33500000000000002          3.6634875753025876E-017
  0.33800000000000002          6.8493419073727493E-017
  0.34100000000000003          9.4397272530989983E-017
  0.34400000000000003          1.0704951160952853E-016
  0.34700000000000003          1.0016021271803318E-016
  0.35000000000000003          6.9929134204377428E-017
  0.35300000000000004          1.6318368512447034E-017
  0.35600000000000004         -5.6146148904617268E-017
  0.35900000000000004         -1.3825667921657559E-016
  0.36200000000000004         -2.1680715896438403E-016
  0.36500000000000005         -2.7608589946139680E-016
  0.36800000000000005         -3.0006502807106378E-016
  0.37100000000000005         -2.7506106311168805E-016
  0.37400000000000005         -1.9254822528137669E-016
  0.37700000000000006         -5.1731331193766555E-017
  0.38000000000000006          1.3854389578416284E-016
  0.38300000000000006          3.5896690385482005E-016
  0.38600000000000007          5.8036562319925005E-016
  0.38900000000000007          7.6596688104628897E-016
  0.39200000000000007          8.7533927661360509E-016
  0.39500000000000007          8.6982358635585256E-016
  0.39800000000000008          7.1898988170723334E-016
  0.40100000000000008          4.0741227506294729E-016
  0.40400000000000008         -5.9186913983973625E-017
  0.40700000000000008         -6.4947108967698580E-016
  0.41000000000000009         -1.3048055999019069E-015
  0.41300000000000009         -1.9412840361601832E-015
  0.41600000000000009         -2.4560361362263634E-015
  0.41900000000000009         -2.7379072786370405E-015
  0.42200000000000010         -2.6819265518945635E-015
  0.42500000000000010         -2.2063065751445958E-015
  0.42800000000000010         -1.2700308995096477E-015
  0.43100000000000011          1.1137117489210085E-016
  0.43400000000000000          1.8545563360686412E-015
  0.43700000000000000          3.8041402958742017E-015
  0.44000000000000000          5.7376297417738549E-015
  0.44300000000000000          7.3806261328840929E-015
  0.44600000000000001          8.4323900076405097E-015
  0.44900000000000001          8.6002731671608855E-015
  0.45200000000000001          7.6403796571049599E-015
  0.45500000000000002          5.4002735520086377E-015
  0.45800000000000002          1.8588523177488050E-015
  0.46100000000000002         -2.8421699217966088E-015
  0.46400000000000002         -8.3805737200183731E-015
  0.46700000000000003         -1.4254563917131665E-014
  0.47000000000000003         -1.9805813587818463E-014
  0.47300000000000003         -2.4265666127755940E-014
  0.47600000000000003         -2.6824019002801420E-014
  0.47900000000000004         -2.6716564433340034E-014
  0.48200000000000004         -2.3324267342503340E-014
  0.48500000000000004         -1.6276085376854318E-014
  0.48800000000000004         -5.5441473702398142E-015
  0.49100000000000005          8.4806702591171887E-015
  0.49400000000000005          2.4944106816521298E-014
  0.49700000000000005          4.2526692415305276E-014
  0.50000000000000000          5.9491969020260724E-014
  0.50300000000000011          7.3790290226176234E-014
  0.50600000000000001          8.3216282969113247E-014
  0.50900000000000012          8.5615614906917309E-014
  0.51200000000000001          7.9125889846075953E-014
  0.51500000000000012          6.2435636379435217E-014
  0.51800000000000002          3.5035132567954666E-014
  0.52100000000000013         -2.5662495808965360E-015
  0.52400000000000002         -4.8685131312992402E-014
  0.52700000000000014         -1.0040067973339604E-013
  0.53000000000000003         -1.5360282482817901E-013
  0.53300000000000014         -2.0316909406245194E-013
  0.53600000000000003         -2.4327607708512896E-013
  0.53900000000000015         -2.6783768980559064E-013
  0.54200000000000004         -2.7105193000723766E-013
  0.54500000000000015         -2.4801990286348883E-013
  0.54800000000000004         -1.9539184041474549E-013
  0.55100000000000016         -1.1198760294893696E-013
  0.55400000000000005          6.7877697304154563E-016
  0.55700000000000016          1.3802795450649451E-013
  0.56000000000000005          2.9225853158484580E-013
  0.56299999999999994          4.5245778501081341E-013
  0.56600000000000006          6.0500820485009015E-013
  0.56899999999999995          7.3431255697250934E-013
  0.57200000000000006          8.2381446071233411E-013
  0.57499999999999996          8.5728211402736685E-013
  0.57800000000000007          8.2028574198014732E-013
  0.58099999999999996          7.0178160074220909E-013
  0.58400000000000007          4.9566589942865095E-013
  0.58699999999999997          2.0218696900022197E-013
  0.59000000000000008         -1.7093666715219015E-013
  0.59299999999999997         -6.0783180468126366E-013
  0.59600000000000009         -1.0843298169350005E-012
  0.59899999999999998         -1.5684825583520211E-012
  0.60200000000000009         -2.0217894355042782E-012
  0.60500000000000020         -2.4011425810277078E-012
  0.60800000000000010         -2.6614341250978132E-012
  0.61100000000000021         -2.7587720340877466E-012
  0.61400000000000010         -2.6540737606399785E-012
  0.61700000000000021         -2.3168562340709815E-012
  0.62000000000000011         -1.7289575273754344E-012
  0.62300000000000022         -8.8790761525250552E-013
  0.62600000000000011          1.9039859294186138E-013
  0.62900000000000000          1.4700346986015462E-012
  0.63200000000000012          2.8945394307999202E-012
  0.63500000000000001          4.3879383629323415E-012
  0.63800000000000012          5.8573455813370999E-012
  0.64100000000000001          7.1972374258217529E-012
  0.64400000000000013          8.2952267413932606E-012
  0.64700000000000002          9.0393199154269881E-012
  0.65000000000000013          9.3262092003204509E-012
  0.65300000000000002          9.0702779947018141E-012
  0.65600000000000014          8.2126967935402955E-012
  0.65900000000000003          6.7302184743906473E-012
  0.66200000000000014          4.6428336243351758E-012
  0.66500000000000004          2.0197579777507018E-012
  0.66800000000000015         -1.0167443649176818E-012
  0.67100000000000004         -4.2904817912475768E-012
  0.67400000000000015         -7.5733838458115172E-012
  0.67700000000000005         -1.0591388872602660E-011
  0.68000000000000016         -1.3033577033907026E-011
  0.68300000000000005         -1.4564818970743516E-011
  0.68600000000000017         -1.4841332728560292E-011
  0.68900000000000006         -1.3529273477369484E-011
  0.69200000000000017         -1.0324833583119397E-011
  0.69500000000000006         -4.9750505738905071E-012
  0.69800000000000018          2.7004058978169858E-012
  0.70100000000000007          1.2789924506037398E-011
  0.70400000000000018          2.5270882011886132E-011
  0.70700000000000007          3.9995733800271913E-011
  0.71000000000000019          5.6678922787069219E-011
  0.71300000000000008          7.4891435969375074E-011
  0.71600000000000019          9.4057291854981716E-011
  0.71900000000000008          1.1345600983205274E-010
  0.72200000000000020          1.3222890214138558E-010
  0.72500000000000009          1.4938985397287579E-010
  0.72800000000000020          1.6383711698838275E-010
  0.73100000000000009          1.7435994304672157E-010
  0.73400000000000021          1.7966069110187241E-010
  0.73700000000000010          1.7835904263148001E-010
  0.74000000000000021          1.6898678729981832E-010
  0.74300000000000010          1.4999748764491721E-010
  0.74600000000000022          1.1974312966237892E-010
  0.74900000000000011          7.6439381990041174E-011
  0.75200000000000022          1.8133114666463136E-011
  0.75500000000000012         -5.7365288577782761E-011
  0.75800000000000001         -1.5255763584872065E-010
  0.76100000000000012         -2.7036512270833134E-010
  0.76400000000000001         -4.1423649838181855E-010
  0.76700000000000013         -5.8832318057171621E-010
  0.77000000000000002         -7.9760695454450005E-010
  0.77300000000000013         -1.0481365523000594E-009
  0.77600000000000002         -1.3472378605077474E-009
  0.77900000000000014         -1.7037271840755959E-009
  0.78200000000000003         -2.1282317654645299E-009
  0.78500000000000014         -2.6334432284002853E-009
  0.78800000000000003         -3.2344608235653473E-009
  0.79100000000000015         -3.9491503274343907E-009
  0.79400000000000004         -4.7985918430634307E-009
  0.79700000000000015         -5.8073672723058905E-009
  0.80000000000000004         -7.0041409156975004E-009
  0.80300000000000016         -8.4220457715889257E-009
  0.80600000000000005         -1.0099407066640071E-008
  0.80900000000000016         -1.2080108881301873E-008
  0.81200000000000006         -1.4414484718971936E-008
  0.81500000000000017         -1.7159809487905657E-008
  0.81800000000000006         -2.0381102053780000E-008
  0.82100000000000017         -2.4151878085350184E-008
  0.82400000000000007         -2.8555474826305249E-008
  0.82700000000000018         -3.3685717446685459E-008
  0.83000000000000007         -3.9647686760832235E-008
  0.83300000000000018         -4.6559386903868101E-008
  0.83600000000000008         -5.4552302571200494E-008
  0.83900000000000019         -6.3772997702755854E-008
  0.84200000000000008         -7.4384461938393541E-008
  0.84500000000000020         -8.6567717189386949E-008
  0.84800000000000009         -1.0052287452021390E-007
  0.85100000000000020         -1.1646907845102371E-007
  0.85400000000000009         -1.3464829849666163E-007
  0.85700000000000021         -1.5532653728465801E-007
  0.86000000000000010         -1.7879266117090980E-007
  0.86300000000000021         -2.0536088893553632E-007
  0.86600000000000010         -2.3537181282267080E-007
  0.86900000000000022         -2.6919696132604065E-007
  0.87200000000000011         -3.0723193370106853E-007
  0.87500000000000022         -3.4990141127819242E-007
  0.87800000000000011         -3.9766087347007212E-007
  0.88100000000000001         -4.5099260365955958E-007
  0.88400000000000012         -5.1040530518475048E-007
  0.88700000000000001         -5.7643623522565576E-007
  0.89000000000000012         -6.4964810931161031E-007
  0.89300000000000002         -7.3062575210041414E-007
  0.89600000000000013         -8.1997082873459212E-007
  0.89900000000000002         -9.1830672607754121E-007
  0.90200000000000014         -1.0262635838555269E-006
  0.90500000000000003         -1.1444713323284868E-006
  0.90800000000000014         -1.2735777074175156E-006
  0.91100000000000003         -1.4142142657564533E-006
  0.91400000000000015         -1.5669912921458453E-006
  0.91700000000000004         -1.7325063700944367E-006
  0.92000000000000015         -1.9113158016811494E-006
  0.92300000000000004         -2.1039289260822710E-006
  0.92600000000000016         -2.3108138160748850E-006
  0.92900000000000005         -2.5323330380116519E-006
  0.93200000000000016         -2.7688061522990873E-006
  0.93500000000000005         -3.0204477218548635E-006
  0.93800000000000017         -3.2873160624749169E-006
  0.94100000000000006         -3.5693853656999502E-006
  0.94400000000000017         -3.8664584539850427E-006
  0.94700000000000006         -4.1781904301337256E-006
  0.95000000000000018         -4.5040338726870712E-006
  0.95300000000000007         -4.8432561363855779E-006
  0.95600000000000018         -5.1949100163861978E-006
  0.95900000000000007         -5.5578439262178974E-006
  0.96200000000000019         -5.9305910867192679E-006
  0.96500000000000008         -6.3114887512655076E-006
  0.96800000000000019         -6.6985866712263739E-006
  0.97100000000000009         -7.0896715283131245E-006
  0.97400000000000020         -7.4821896869475709E-006
  0.97700000000000009         -7.8733533019633727E-006
  0.98000000000000020         -8.2600457751939369E-006
  0.98300000000000010         -8.6389756499073636E-006
  0.98600000000000021         -9.0064084394835098E-006
  0.98900000000000010         -9.3583743407059661E-006
  0.99200000000000021         -9.6907723885660838E-006
  0.99500000000000011         -9.9991229401188805E-006
  0.99800000000000022         -1.0278798389992563E-005
   1.0010000000000001         -1.0524982328159020E-005
   1.0040000000000002         -1.0732843506846925E-005
   1.0070000000000001         -1.0897208291328336E-005
   1.0100000000000000         -1.1013053571819372E-005
   1.0130000000000001         -1.1075224523745621E-005
   1.0160000000000000         -1.1078708781802440E-005
   1.0190000000000001         -1.1018635531332877E-005
   1.0220000000000000         -1.0890026774450012E-005
   1.0250000000000001         -1.0688457352862642E-005
   1.0280000000000000         -1.0409836914685437E-005
   1.0310000000000001         -1.0050247780706960E-005
   1.0340000000000000         -9.6062928250527807E-006
   1.0370000000000001         -9.0751151493376006E-006
   1.0400000000000000         -8.4545558267471576E-006
   1.0430000000000001         -7.7428361758115510E-006
   1.0460000000000000         -6.9390649199515141E-006
   1.0490000000000002         -6.0432237376278539E-006
   1.0520000000000000         -5.0561304382777432E-006
   1.0550000000000002         -3.9792453235467006E-006
   1.0580000000000001         -2.8151828984599501E-006
   1.0610000000000002         -1.5674718288592068E-006
   1.0640000000000001         -2.4045869743683443E-007
   1.0670000000000002          1.1604576372908299E-006
   1.0700000000000001          2.6288525114355678E-006
   1.0730000000000002          4.1572168212223391E-006
   1.0760000000000001          5.7372506301346773E-006
   1.0790000000000002          7.3599693076158213E-006
   1.0820000000000001          9.0151719281273416E-006
   1.0850000000000002          1.0691952199361958E-005
   1.0880000000000001          1.2379137604081187E-005
   1.0910000000000002          1.4064564845036280E-005
   1.0940000000000001          1.5735433229449765E-005
   1.0970000000000002          1.7378739317211830E-005
