 -0.39999999999999997          0.0000000000000000     
 -0.39699999999999996          0.0000000000000000     
 -0.39399999999999996          0.0000000000000000     
 -0.39099999999999996          0.0000000000000000     
 -0.38799999999999996          0.0000000000000000     
 -0.38499999999999995          0.0000000000000000     
 -0.38199999999999995          0.0000000000000000     
 -0.37899999999999995          0.0000000000000000     
 -0.37599999999999995          0.0000000000000000     
 -0.37299999999999994          0.0000000000000000     
 -0.37000000000000000          0.0000000000000000     
 -0.36699999999999999          0.0000000000000000     
 -0.36399999999999999          0.0000000000000000     
 -0.36099999999999999          0.0000000000000000     
 -0.35799999999999998          0.0000000000000000     
 -0.35499999999999998          0.0000000000000000     
 -0.35199999999999998          0.0000000000000000     
 -0.34899999999999998          0.0000000000000000     
 -0.34599999999999997          0.0000000000000000     
 -0.34299999999999997          0.0000000000000000     
 -0.33999999999999997          0.0000000000000000     
 -0.33699999999999997          0.0000000000000000     
 -0.33399999999999996          0.0000000000000000     
 -0.33099999999999996          0.0000000000000000     
 -0.32799999999999996          0.0000000000000000     
 -0.32499999999999996          0.0000000000000000     
 -0.32199999999999995          0.0000000000000000     
 -0.31899999999999995          0.0000000000000000     
 -0.31599999999999995          0.0000000000000000     
 -0.31299999999999994          0.0000000000000000     
 -0.30999999999999994          0.0000000000000000     
 -0.30699999999999994          0.0000000000000000     
 -0.30399999999999994          0.0000000000000000     
 -0.30099999999999993          0.0000000000000000     
 -0.29799999999999993          0.0000000000000000     
 -0.29499999999999998          0.0000000000000000     
 -0.29199999999999998          0.0000000000000000     
 -0.28899999999999998          0.0000000000000000     
 -0.28599999999999998          0.0000000000000000     
 -0.28299999999999997          0.0000000000000000     
 -0.27999999999999997          0.0000000000000000     
 -0.27699999999999997          0.0000000000000000     
 -0.27399999999999997          0.0000000000000000     
 -0.27099999999999996          0.0000000000000000     
 -0.26799999999999996          0.0000000000000000     
 -0.26499999999999996          0.0000000000000000     
 -0.26199999999999996          0.0000000000000000     
 -0.25899999999999995          0.0000000000000000     
 -0.25599999999999995          0.0000000000000000     
 -0.25300000000000000          0.0000000000000000     
 -0.24999999999999997          0.0000000000000000     
 -0.24699999999999997          0.0000000000000000     
 -0.24399999999999997          0.0000000000000000     
 -0.24099999999999996          0.0000000000000000     
 -0.23799999999999996          0.0000000000000000     
 -0.23499999999999996          0.0000000000000000     
 -0.23199999999999996          0.0000000000000000     
 -0.22899999999999995          0.0000000000000000     
 -0.22599999999999995          0.0000000000000000     
 -0.22299999999999998          0.0000000000000000     
 -0.21999999999999997          0.0000000000000000     
 -0.21699999999999997          0.0000000000000000     
 -0.21399999999999997          0.0000000000000000     
 -0.21099999999999997          0.0000000000000000     
 -0.20799999999999996          0.0000000000000000     
 -0.20499999999999996          0.0000000000000000     
 -0.20199999999999996          0.0000000000000000     
 -0.19899999999999995          0.0000000000000000     
 -0.19599999999999995          0.0000000000000000     
 -0.19299999999999995          0.0000000000000000     
 -0.18999999999999997          0.0000000000000000     
 -0.18699999999999997          0.0000000000000000     
 -0.18399999999999997          0.0000000000000000     
 -0.18099999999999997          0.0000000000000000     
 -0.17799999999999996          0.0000000000000000     
 -0.17499999999999996          0.0000000000000000     
 -0.17199999999999996          0.0000000000000000     
 -0.16899999999999996          0.0000000000000000     
 -0.16599999999999995          0.0000000000000000     
 -0.16299999999999995          0.0000000000000000     
 -0.15999999999999998          0.0000000000000000     
 -0.15699999999999997          0.0000000000000000     
 -0.15399999999999997          0.0000000000000000     
 -0.15099999999999997          0.0000000000000000     
 -0.14799999999999996          0.0000000000000000     
 -0.14499999999999996          0.0000000000000000     
 -0.14199999999999996          0.0000000000000000     
 -0.13899999999999996          0.0000000000000000     
 -0.13599999999999995          0.0000000000000000     
 -0.13299999999999995          0.0000000000000000     
 -0.12999999999999995          0.0000000000000000     
 -0.12699999999999995          0.0000000000000000     
 -0.12399999999999994          0.0000000000000000     
 -0.12099999999999994          0.0000000000000000     
 -0.11799999999999994          0.0000000000000000     
 -0.11499999999999994          0.0000000000000000     
 -0.11199999999999993          0.0000000000000000     
 -0.10899999999999999          0.0000000000000000     
 -0.10599999999999998          0.0000000000000000     
 -0.10299999999999998          0.0000000000000000     
  -9.9999999999999978E-002     0.0000000000000000     
  -9.6999999999999975E-002     0.0000000000000000     
  -9.3999999999999972E-002     0.0000000000000000     
  -9.0999999999999970E-002     0.0000000000000000     
  -8.7999999999999967E-002     0.0000000000000000     
  -8.4999999999999964E-002     0.0000000000000000     
  -8.1999999999999962E-002     0.0000000000000000     
  -7.8999999999999959E-002     0.0000000000000000     
  -7.5999999999999956E-002     0.0000000000000000     
  -7.2999999999999954E-002     0.0000000000000000     
  -6.9999999999999951E-002     0.0000000000000000     
  -6.6999999999999948E-002     0.0000000000000000     
  -6.3999999999999946E-002     0.0000000000000000     
  -6.0999999999999943E-002     0.0000000000000000     
  -5.7999999999999940E-002     0.0000000000000000     
  -5.4999999999999938E-002     0.0000000000000000     
  -5.1999999999999935E-002     0.0000000000000000     
  -4.8999999999999932E-002     0.0000000000000000     
  -4.5999999999999985E-002     0.0000000000000000     
  -4.2999999999999983E-002     0.0000000000000000     
  -3.9999999999999980E-002     0.0000000000000000     
  -3.6999999999999977E-002     0.0000000000000000     
  -3.3999999999999975E-002     0.0000000000000000     
  -3.0999999999999972E-002     0.0000000000000000     
  -2.7999999999999969E-002     0.0000000000000000     
  -2.4999999999999967E-002     0.0000000000000000     
  -2.1999999999999964E-002     0.0000000000000000     
  -1.8999999999999961E-002     0.0000000000000000     
  -1.5999999999999959E-002     0.0000000000000000     
  -1.2999999999999956E-002     0.0000000000000000     
  -9.9999999999999534E-003     0.0000000000000000     
  -6.9999999999999507E-003     0.0000000000000000     
  -3.9999999999999480E-003     0.0000000000000000     
  -9.9999999999994538E-004     0.0000000000000000     
   2.0000000000000573E-003     0.0000000000000000     
   5.0000000000000600E-003     0.0000000000000000     
   8.0000000000000626E-003     0.0000000000000000     
   1.1000000000000065E-002     0.0000000000000000     
   1.4000000000000068E-002     0.0000000000000000     
   1.7000000000000015E-002     0.0000000000000000     
   2.0000000000000018E-002     0.0000000000000000     
   2.3000000000000020E-002     0.0000000000000000     
   2.6000000000000023E-002     0.0000000000000000     
   2.9000000000000026E-002     0.0000000000000000     
   3.2000000000000028E-002     0.0000000000000000     
   3.5000000000000031E-002     0.0000000000000000     
   3.8000000000000034E-002     0.0000000000000000     
   4.1000000000000036E-002     0.0000000000000000     
   4.4000000000000039E-002     0.0000000000000000     
   4.7000000000000042E-002     0.0000000000000000     
   5.0000000000000044E-002     0.0000000000000000     
   5.3000000000000047E-002     0.0000000000000000     
   5.6000000000000050E-002     0.0000000000000000     
   5.9000000000000052E-002     0.0000000000000000     
   6.2000000000000055E-002     0.0000000000000000     
   6.5000000000000058E-002     0.0000000000000000     
   6.8000000000000060E-002     0.0000000000000000     
   7.1000000000000063E-002     0.0000000000000000     
   7.4000000000000066E-002     0.0000000000000000     
   7.7000000000000068E-002     0.0000000000000000     
   8.0000000000000016E-002     0.0000000000000000     
   8.3000000000000018E-002     0.0000000000000000     
   8.6000000000000021E-002     0.0000000000000000     
   8.9000000000000024E-002     0.0000000000000000     
   9.2000000000000026E-002     0.0000000000000000     
   9.5000000000000029E-002     0.0000000000000000     
   9.8000000000000032E-002     0.0000000000000000     
  0.10100000000000003          0.0000000000000000     
  0.10400000000000004          0.0000000000000000     
  0.10700000000000004          0.0000000000000000     
  0.11000000000000004          0.0000000000000000     
  0.11300000000000004          0.0000000000000000     
  0.11600000000000005          0.0000000000000000     
  0.11900000000000005          0.0000000000000000     
  0.12200000000000005          0.0000000000000000     
  0.12500000000000006          0.0000000000000000     
  0.12800000000000006          0.0000000000000000     
  0.13100000000000006          0.0000000000000000     
  0.13400000000000006          0.0000000000000000     
  0.13700000000000007          0.0000000000000000     
  0.14000000000000007          0.0000000000000000     
  0.14300000000000007          0.0000000000000000     
  0.14600000000000007          0.0000000000000000     
  0.14900000000000008          0.0000000000000000     
  0.15200000000000008          0.0000000000000000     
  0.15500000000000008          0.0000000000000000     
  0.15800000000000008          0.0000000000000000     
  0.16100000000000009          0.0000000000000000     
  0.16400000000000009          0.0000000000000000     
  0.16700000000000009          0.0000000000000000     
  0.17000000000000010          0.0000000000000000     
  0.17300000000000010          0.0000000000000000     
  0.17600000000000010          0.0000000000000000     
  0.17899999999999999          0.0000000000000000     
  0.18200000000000000          0.0000000000000000     
  0.18500000000000000          0.0000000000000000     
  0.18800000000000000          0.0000000000000000     
  0.19100000000000000          0.0000000000000000     
  0.19400000000000001          0.0000000000000000     
  0.19700000000000001          0.0000000000000000     
  0.20000000000000001          0.0000000000000000     
  0.20300000000000001          0.0000000000000000     
  0.20600000000000002          6.5241414771437564E-042
  0.20900000000000002          8.4209159708356624E-042
  0.21200000000000002          0.0000000000000000     
  0.21500000000000002         -8.4070899488610547E-042
  0.21800000000000003          1.3434299993270381E-041
  0.22100000000000003          8.3213421200747133E-042
  0.22400000000000003         -9.5257684183991447E-041
  0.22700000000000004         -1.5096045658039143E-040
  0.23000000000000004         -8.0036827650737814E-040
  0.23300000000000004         -8.9499485794068016E-040
  0.23600000000000004          4.6411881006976320E-040
  0.23900000000000005          2.2189411481844878E-039
  0.24200000000000005          3.6864982750040325E-039
  0.24500000000000005          3.2835047206121134E-039
  0.24800000000000005         -2.6580362461739031E-039
  0.25100000000000006         -1.1242584166864110E-038
  0.25400000000000006         -1.8758805337832351E-038
  0.25700000000000006         -1.6744516422828286E-038
  0.26000000000000006          2.8275262267300181E-039
  0.26300000000000007          3.6426213772884869E-038
  0.26600000000000007          7.5786095569215268E-038
  0.26900000000000007          9.3609225433923191E-038
  0.27200000000000008          4.6331324249329659E-038
  0.27500000000000008         -8.2179420545942415E-038
  0.27800000000000008         -2.7300352562361001E-037
  0.28100000000000008         -4.3942367540944340E-037
  0.28400000000000009         -4.3910610367407416E-037
  0.28700000000000009         -1.1861896247806859E-037
  0.29000000000000009          5.8148016723083327E-037
  0.29300000000000009          1.5126956336459682E-036
  0.29600000000000010          2.2448381000604738E-036
  0.29900000000000010          2.1178017484781468E-036
  0.30200000000000010          4.7944699029403453E-037
  0.30499999999999999         -2.8959261407153579E-036
  0.30800000000000000         -7.3287420879103650E-036
  0.31100000000000000         -1.0940288072672828E-035
  0.31400000000000000         -1.0853202122674593E-035
  0.31700000000000000         -4.1265916300119115E-036
  0.32000000000000001          1.0583540995467184E-035
  0.32300000000000001          3.1058611373675568E-035
  0.32600000000000001          5.0122254390942039E-035
  0.32900000000000001          5.5973324121877900E-035
  0.33200000000000002          3.5257672033790331E-035
  0.33500000000000002         -2.0885209996380063E-035
  0.33800000000000002         -1.0894629122825260E-034
  0.34100000000000003         -2.0616268415086993E-034
  0.34400000000000003         -2.6876115045461716E-034
  0.34700000000000003         -2.3956100344731255E-034
  0.35000000000000003         -6.7267896843398289E-035
  0.35300000000000004          2.6437927519816759E-034
  0.35600000000000004          7.0527476363117291E-034
  0.35900000000000004          1.1187932365359068E-033
  0.36200000000000004          1.2891888538353544E-033
  0.36500000000000005          9.7018260407152421E-034
  0.36800000000000005         -2.1990555754745289E-035
  0.37100000000000005         -1.6856290625527595E-033
  0.37400000000000005         -3.7169560921701899E-033
  0.37700000000000006         -5.4543614137641858E-033
  0.38000000000000006         -5.9435405839453864E-033
  0.38300000000000006         -4.1666281754406646E-033
  0.38600000000000007          5.6541642739458974E-034
  0.38900000000000007          8.1257615652430363E-033
  0.39200000000000007          1.7135431682505456E-032
  0.39500000000000007          2.4782917620269474E-032
  0.39800000000000008          2.7115303376378444E-032
  0.40100000000000008          1.9948301456529202E-032
  0.40400000000000008          3.8053581765761620E-034
  0.40700000000000008         -3.1341483512264346E-032
  0.41000000000000009         -7.0130922268232282E-032
  0.41300000000000009         -1.0527035458588872E-031
  0.41600000000000009         -1.2130140178975635E-031
  0.41900000000000009         -1.0115096388384748E-031
  0.42200000000000010         -3.1526537123322533E-032
  0.42500000000000010          9.0191685579305775E-032
  0.42800000000000010          2.4925149628509055E-031
  0.43100000000000011          4.0949198590190308E-031
  0.43400000000000000          5.1472537856890884E-031
  0.43700000000000000          4.9778909979032181E-031
  0.44000000000000000          2.9797933473244753E-031
  0.44300000000000000         -1.1488940031326804E-031
  0.44600000000000001         -7.1464977962882602E-031
  0.44900000000000001         -1.3988646377543688E-030
  0.45200000000000001         -1.9842409621674925E-030
  0.45500000000000002         -2.2262321625582372E-030
  0.45800000000000002         -1.8679254556210490E-030
  0.46100000000000002         -7.1642939717402506E-031
  0.46400000000000002          1.2645535799490141E-030
  0.46700000000000003          3.8674899755280208E-030
  0.47000000000000003          6.5886182268246063E-030
  0.47300000000000003          8.6423201764186750E-030
  0.47600000000000003          9.0680847110784986E-030
  0.47900000000000004          6.9394130814393447E-030
  0.48200000000000004          1.6575074730443763E-030
  0.48500000000000004         -6.7196812809409949E-030
  0.48800000000000004         -1.7193977971493162E-029
  0.49100000000000005         -2.7691129374746105E-029
  0.49400000000000005         -3.5175518949121013E-029
  0.49700000000000005         -3.6089491726845582E-029
  0.50000000000000000         -2.7131001475489972E-029
  0.50300000000000011         -6.2939833891473045E-030
  0.50600000000000001          2.6007504333866260E-029
  0.50900000000000012          6.6005769291124601E-029
  0.51200000000000001          1.0617008714920613E-028
  0.51500000000000012          1.3564432592492661E-028
  0.51800000000000002          1.4175800979900996E-028
  0.52100000000000013          1.1263941876637785E-028
  0.52400000000000002          4.0681593302976758E-029
  0.52700000000000014         -7.3706897963429680E-029
  0.53000000000000003         -2.1892337516842410E-028
  0.53300000000000014         -3.7060370676556022E-028
  0.53600000000000003         -4.9268554275480690E-028
  0.53900000000000015         -5.4183773218739766E-028
  0.54200000000000004         -4.7542722509257654E-028
  0.54500000000000015         -2.6238086733326007E-028
  0.54800000000000004          1.0464344649803876E-028
  0.55100000000000016          5.9826333301235953E-028
  0.55400000000000005          1.1496326347627667E-027
  0.55700000000000016          1.6491241567241092E-027
  0.56000000000000005          1.9569606872414201E-027
  0.56299999999999994          1.9248585355091183E-027
  0.56600000000000006          1.4275309125031469E-027
  0.56899999999999995          4.0025594250427052E-028
  0.57200000000000006         -1.1239877294941632E-027
  0.57499999999999996         -2.9864311218860486E-027
  0.57800000000000007         -4.8929187759318453E-027
  0.58099999999999996         -6.4312924669875419E-027
  0.58400000000000007         -7.1209818364555121E-027
  0.58699999999999997         -6.4947927887549201E-027
  0.59000000000000008         -4.2057384694797370E-027
  0.59299999999999997         -1.4405775585398873E-028
  0.59600000000000009          5.4572524020651554E-027
  0.59899999999999998          1.1954686561932741E-026
  0.60200000000000009          1.8290649338129973E-026
  0.60500000000000020          2.3075411200084763E-026
  0.60800000000000010          2.4764752309773774E-026
  0.61100000000000021          2.1926748441340931E-026
  0.61400000000000010          1.3571536521996987E-026
  0.61700000000000021         -5.0336747471082377E-028
  0.62000000000000011         -1.9416883791977656E-026
  0.62300000000000022         -4.1030326445048697E-026
  0.62600000000000011         -6.1967355156642210E-026
  0.62900000000000000         -7.7882438706190966E-026
  0.63200000000000012         -8.3999014753705936E-026
  0.63500000000000001         -7.5894395356553286E-026
  0.63800000000000012         -5.0454154336208397E-026
  0.64100000000000001         -6.8655771974950444E-027
  0.64400000000000013          5.2525189252090043E-026
  0.64700000000000002          1.2168926324508333E-025
  0.65000000000000013          1.9091450601814925E-025
  0.65300000000000002          2.4747819439416565E-025
  0.65600000000000014          2.7705800430127904E-025
  0.65900000000000003          2.6583324031354864E-025
  0.66200000000000014          2.0309702545906713E-025
  0.66500000000000004          8.4058137061918253E-026
  0.66800000000000015         -8.7604447227567715E-026
  0.67100000000000004         -2.9793742553862013E-025
  0.67400000000000015         -5.2217423745694472E-025
  0.67700000000000005         -7.2588405591092550E-025
  0.68000000000000016         -8.6806754231481381E-025
  0.68300000000000005         -9.0618773456780151E-025
  0.68600000000000017         -8.0282358640817626E-025
  0.68900000000000006         -5.3327023443706369E-025
  0.69200000000000017         -9.3103764010310393E-026
  0.69500000000000006          4.9550883664512049E-025
  0.69800000000000018          1.1800799701849929E-024
  0.70100000000000007          1.8779036132270757E-024
  0.70400000000000018          2.4809151418459327E-024
  0.70700000000000007          2.8658093112837975E-024
  0.71000000000000019          2.9091204164330355E-024
  0.71300000000000008          2.5062504808877538E-024
  0.71600000000000019          1.5925555159288569E-024
  0.71900000000000008          1.6385582130170535E-025
  0.72200000000000020         -1.7068484955085230E-024
  0.72500000000000009         -3.8598203223765495E-024
  0.72800000000000020         -6.0493425957695696E-024
  0.73100000000000009         -7.9572561336292909E-024
  0.73400000000000021         -9.2204743500989382E-024
  0.73700000000000010         -9.4719373110279232E-024
  0.74000000000000021         -8.3926264578855094E-024
  0.74300000000000010         -5.7699063788035318E-024
  0.74600000000000022         -1.5556373731255573E-024
  0.74900000000000011          4.0838265338211327E-024
  0.75200000000000022          1.0735060436462427E-023
  0.75500000000000012          1.7730802173078726E-023
  0.75800000000000001          2.4176431367016657E-023
  0.76100000000000012          2.9014228615510393E-023
  0.76400000000000001          3.1126205272704458E-023
  0.76700000000000013          2.9471081123886766E-023
  0.77000000000000002          2.3245625538860601E-023
  0.77300000000000013          1.2055265382549854E-023
  0.77600000000000002         -3.9266626513940288E-024
  0.77900000000000014         -2.3834407255659953E-023
  0.78200000000000003         -4.6045091619857010E-023
  0.78500000000000014         -6.8197162006882703E-023
  0.78800000000000003         -8.7309410663466780E-023
  0.79100000000000015         -1.0001129397910018E-022
  0.79400000000000004         -1.0288264111972950E-022
  0.79700000000000015         -9.2884188761863311E-023
  0.80000000000000004         -6.7849683903571084E-023
  0.80300000000000016         -2.6990334920054301E-023
  0.80600000000000005          2.8648176340286633E-023
  0.80900000000000016          9.5846395857213452E-023
  0.81200000000000006          1.6905966172949384E-022
  0.81500000000000017          2.4052107394394392E-022
  0.81800000000000006          3.0064773864763349E-022
  0.82100000000000017          3.3877651979838967E-022
  0.82400000000000007          3.4421806013814096E-022
  0.82700000000000018          3.0757721431641390E-022
  0.83000000000000007          2.2224529418775371E-022
  0.83300000000000018          8.5926327041135727E-023
  0.83600000000000008         -9.7985584601055449E-023
  0.83900000000000019         -3.1937608551060809E-022
  0.84200000000000008         -5.6093147525728532E-022
  0.84500000000000020         -7.9841093896518959E-022
  0.84800000000000009         -1.0018180468440748E-021
  0.85100000000000020         -1.1375410626469852E-021
  0.85400000000000009         -1.1714523200845552E-021
  0.85700000000000021         -1.0728388624142328E-021
  0.86000000000000010         -8.1888125439051568E-022
  0.86300000000000021         -3.9932902341659759E-022
  0.86600000000000010          1.7917113156003448E-022
  0.86900000000000022          8.8962473109874573E-022
  0.87200000000000011          1.6827705846047763E-021
  0.87500000000000022          2.4872290089359455E-021
  0.87800000000000011          3.2122568741394587E-021
  0.88100000000000001          3.7533225126939826E-021
  0.88400000000000012          4.0006439022698105E-021
  0.88700000000000001          3.8503817294226836E-021
  0.89000000000000012          3.2177998743685945E-021
  0.89300000000000002          2.0515550601913247E-021
  0.89600000000000013          3.4760553897025273E-022
  0.89900000000000002         -1.8386894998438100E-021
  0.90200000000000014         -4.3842511502741911E-021
  0.90500000000000003         -7.0953595769026258E-021
  0.90800000000000014         -9.7117341903586177E-021
  0.91100000000000003         -1.1918936969300982E-020
  0.91400000000000015         -1.3369611948874546E-020
  0.91700000000000004         -1.3713262861189422E-020
  0.92000000000000015         -1.2633432197704711E-020
  0.92300000000000004         -9.8902177334967589E-021
  0.92600000000000016         -5.3644896542372830E-021
  0.92900000000000005          9.0034876435207337E-022
  0.93200000000000016          8.6637173931213875E-021
  0.93500000000000005          1.7466080270633310E-020
  0.93800000000000017          2.6625123805493656E-020
  0.94100000000000006          3.5254185881118676E-020
  0.94400000000000017          4.2306408637231830E-020
  0.94700000000000006          4.6646054625036852E-020
  0.95000000000000018          4.7145478721865666E-020
  0.95300000000000007          4.2803731897873312E-020
  0.95600000000000018          3.2880395967567499E-020
  0.95900000000000007          1.7033135195792470E-020
  0.96200000000000019         -4.5527805476747593E-021
  0.96500000000000008         -3.1058929039258769E-020
  0.96800000000000019         -6.0967397677806274E-020
  0.97100000000000009         -9.2050044730542633E-020
  0.97400000000000020         -1.2142617337090122E-019
  0.97700000000000009         -1.4569886123176424E-019
  0.98000000000000020         -1.6117286936275787E-019
  0.98300000000000010         -1.6415604680242395E-019
  0.98600000000000021         -1.5132340826308550E-019
  0.98900000000000010         -1.2013307396505583E-019
  0.99200000000000021         -6.9258426586305482E-020
  0.99500000000000011          9.9870326289727441E-022
  0.99800000000000022          8.8362561239945482E-020
   1.0010000000000001          1.8834567627849010E-019
   1.0040000000000002          2.9417605011299741E-019
   1.0070000000000001          3.9692237642291151E-019
   1.0100000000000000          4.8585961959370089E-019
   1.0130000000000001          5.4908314676059555E-019
   1.0160000000000000          5.7437544539787706E-019
   1.0190000000000001          5.5030002356303437E-019
   1.0220000000000000          4.6746067176676103E-019
   1.0250000000000001          3.1985164984043431E-019
   1.0280000000000000          1.0620094872731828E-019
   1.0310000000000001         -1.6884025313385290E-019
   1.0340000000000000         -4.9378890348968334E-019
   1.0370000000000001         -8.4984873312098008E-019
   1.0400000000000000         -1.2109987012944849E-018
   1.0430000000000001         -1.5447697332946181E-018
   1.0460000000000000         -1.8137729435192563E-018
   1.0490000000000002         -1.9780261857430203E-018
   1.0520000000000000         -1.9980059131763578E-018
   1.0550000000000002         -1.8383616508577895E-018
   1.0580000000000001         -1.4720373836941177E-018
   1.0610000000000002         -8.8456741893905999E-019
   1.0640000000000001         -7.8175418374538482E-020
   1.0670000000000002          9.2471181181268904E-019
   1.0700000000000001          2.0789742123724986E-018
   1.0730000000000002          3.3158103628585569E-018
   1.0760000000000001          4.5435758661343184E-018
   1.0790000000000002          5.6508235802137828E-018
   1.0820000000000001          6.5117539623057473E-018
   1.0850000000000002          6.9940925316192355E-018
   1.0880000000000001          6.9691419477925895E-018
   1.0910000000000002          6.3238301188797940E-018
   1.0940000000000001          4.9738947681677717E-018
   1.0970000000000002          2.8773714952581546E-018
