 -0.39999999999999997          0.0000000000000000     
 -0.39699999999999996          0.0000000000000000     
 -0.39399999999999996          0.0000000000000000     
 -0.39099999999999996          0.0000000000000000     
 -0.38799999999999996          0.0000000000000000     
 -0.38499999999999995          0.0000000000000000     
 -0.38199999999999995          0.0000000000000000     
 -0.37899999999999995          0.0000000000000000     
 -0.37599999999999995          0.0000000000000000     
 -0.37299999999999994          0.0000000000000000     
 -0.37000000000000000          0.0000000000000000     
 -0.36699999999999999          0.0000000000000000     
 -0.36399999999999999          0.0000000000000000     
 -0.36099999999999999          0.0000000000000000     
 -0.35799999999999998          0.0000000000000000     
 -0.35499999999999998          0.0000000000000000     
 -0.35199999999999998          0.0000000000000000     
 -0.34899999999999998          0.0000000000000000     
 -0.34599999999999997          0.0000000000000000     
 -0.34299999999999997          0.0000000000000000     
 -0.33999999999999997          0.0000000000000000     
 -0.33699999999999997          0.0000000000000000     
 -0.33399999999999996          0.0000000000000000     
 -0.33099999999999996          0.0000000000000000     
 -0.32799999999999996          0.0000000000000000     
 -0.32499999999999996          0.0000000000000000     
 -0.32199999999999995          0.0000000000000000     
 -0.31899999999999995          0.0000000000000000     
 -0.31599999999999995          0.0000000000000000     
 -0.31299999999999994          0.0000000000000000     
 -0.30999999999999994          0.0000000000000000     
 -0.30699999999999994          0.0000000000000000     
 -0.30399999999999994          0.0000000000000000     
 -0.30099999999999993          0.0000000000000000     
 -0.29799999999999993          0.0000000000000000     
 -0.29499999999999998          0.0000000000000000     
 -0.29199999999999998          0.0000000000000000     
 -0.28899999999999998          0.0000000000000000     
 -0.28599999999999998          0.0000000000000000     
 -0.28299999999999997          0.0000000000000000     
 -0.27999999999999997          0.0000000000000000     
 -0.27699999999999997          0.0000000000000000     
 -0.27399999999999997          0.0000000000000000     
 -0.27099999999999996          0.0000000000000000     
 -0.26799999999999996          0.0000000000000000     
 -0.26499999999999996          0.0000000000000000     
 -0.26199999999999996          0.0000000000000000     
 -0.25899999999999995          0.0000000000000000     
 -0.25599999999999995          0.0000000000000000     
 -0.25300000000000000          0.0000000000000000     
 -0.24999999999999997          0.0000000000000000     
 -0.24699999999999997          0.0000000000000000     
 -0.24399999999999997          0.0000000000000000     
 -0.24099999999999996          0.0000000000000000     
 -0.23799999999999996          0.0000000000000000     
 -0.23499999999999996          0.0000000000000000     
 -0.23199999999999996          0.0000000000000000     
 -0.22899999999999995          0.0000000000000000     
 -0.22599999999999995          0.0000000000000000     
 -0.22299999999999998          0.0000000000000000     
 -0.21999999999999997          0.0000000000000000     
 -0.21699999999999997          0.0000000000000000     
 -0.21399999999999997          0.0000000000000000     
 -0.21099999999999997          0.0000000000000000     
 -0.20799999999999996          0.0000000000000000     
 -0.20499999999999996          0.0000000000000000     
 -0.20199999999999996          0.0000000000000000     
 -0.19899999999999995          0.0000000000000000     
 -0.19599999999999995          0.0000000000000000     
 -0.19299999999999995          0.0000000000000000     
 -0.18999999999999997          0.0000000000000000     
 -0.18699999999999997          0.0000000000000000     
 -0.18399999999999997          0.0000000000000000     
 -0.18099999999999997          0.0000000000000000     
 -0.17799999999999996          0.0000000000000000     
 -0.17499999999999996          0.0000000000000000     
 -0.17199999999999996          0.0000000000000000     
 -0.16899999999999996          0.0000000000000000     
 -0.16599999999999995          0.0000000000000000     
 -0.16299999999999995          0.0000000000000000     
 -0.15999999999999998          0.0000000000000000     
 -0.15699999999999997          0.0000000000000000     
 -0.15399999999999997          0.0000000000000000     
 -0.15099999999999997          0.0000000000000000     
 -0.14799999999999996          0.0000000000000000     
 -0.14499999999999996          0.0000000000000000     
 -0.14199999999999996          0.0000000000000000     
 -0.13899999999999996          0.0000000000000000     
 -0.13599999999999995          0.0000000000000000     
 -0.13299999999999995          0.0000000000000000     
 -0.12999999999999995          0.0000000000000000     
 -0.12699999999999995          0.0000000000000000     
 -0.12399999999999994          0.0000000000000000     
 -0.12099999999999994          0.0000000000000000     
 -0.11799999999999994          0.0000000000000000     
 -0.11499999999999994          0.0000000000000000     
 -0.11199999999999993          0.0000000000000000     
 -0.10899999999999999          0.0000000000000000     
 -0.10599999999999998          0.0000000000000000     
 -0.10299999999999998          0.0000000000000000     
  -9.9999999999999978E-002     0.0000000000000000     
  -9.6999999999999975E-002     0.0000000000000000     
  -9.3999999999999972E-002     0.0000000000000000     
  -9.0999999999999970E-002     0.0000000000000000     
  -8.7999999999999967E-002     0.0000000000000000     
  -8.4999999999999964E-002     0.0000000000000000     
  -8.1999999999999962E-002     0.0000000000000000     
  -7.8999999999999959E-002     0.0000000000000000     
  -7.5999999999999956E-002     0.0000000000000000     
  -7.2999999999999954E-002     0.0000000000000000     
  -6.9999999999999951E-002     0.0000000000000000     
  -6.6999999999999948E-002     0.0000000000000000     
  -6.3999999999999946E-002     0.0000000000000000     
  -6.0999999999999943E-002     0.0000000000000000     
  -5.7999999999999940E-002     0.0000000000000000     
  -5.4999999999999938E-002     0.0000000000000000     
  -5.1999999999999935E-002     0.0000000000000000     
  -4.8999999999999932E-002     0.0000000000000000     
  -4.5999999999999985E-002     0.0000000000000000     
  -4.2999999999999983E-002     0.0000000000000000     
  -3.9999999999999980E-002     0.0000000000000000     
  -3.6999999999999977E-002     0.0000000000000000     
  -3.3999999999999975E-002     0.0000000000000000     
  -3.0999999999999972E-002     0.0000000000000000     
  -2.7999999999999969E-002     0.0000000000000000     
  -2.4999999999999967E-002     0.0000000000000000     
  -2.1999999999999964E-002     0.0000000000000000     
  -1.8999999999999961E-002     0.0000000000000000     
  -1.5999999999999959E-002     0.0000000000000000     
  -1.2999999999999956E-002     0.0000000000000000     
  -9.9999999999999534E-003     0.0000000000000000     
  -6.9999999999999507E-003     0.0000000000000000     
  -3.9999999999999480E-003     0.0000000000000000     
  -9.9999999999994538E-004     0.0000000000000000     
   2.0000000000000573E-003     0.0000000000000000     
   5.0000000000000600E-003     0.0000000000000000     
   8.0000000000000626E-003     0.0000000000000000     
   1.1000000000000065E-002     0.0000000000000000     
   1.4000000000000068E-002     0.0000000000000000     
   1.7000000000000015E-002     0.0000000000000000     
   2.0000000000000018E-002     0.0000000000000000     
   2.3000000000000020E-002     0.0000000000000000     
   2.6000000000000023E-002     0.0000000000000000     
   2.9000000000000026E-002     0.0000000000000000     
   3.2000000000000028E-002     0.0000000000000000     
   3.5000000000000031E-002     0.0000000000000000     
   3.8000000000000034E-002     0.0000000000000000     
   4.1000000000000036E-002     0.0000000000000000     
   4.4000000000000039E-002     0.0000000000000000     
   4.7000000000000042E-002     0.0000000000000000     
   5.0000000000000044E-002     0.0000000000000000     
   5.3000000000000047E-002     0.0000000000000000     
   5.6000000000000050E-002     0.0000000000000000     
   5.9000000000000052E-002     0.0000000000000000     
   6.2000000000000055E-002    -4.5064030937879309E-042
   6.5000000000000058E-002     4.4331963442866494E-042
   6.8000000000000060E-002     1.9898199642003115E-041
   7.1000000000000063E-002     1.8319877534792546E-041
   7.4000000000000066E-002    -5.2217196607912615E-041
   7.7000000000000068E-002    -3.2334460860733566E-040
   8.0000000000000016E-002    -2.0679234725226398E-041
   8.3000000000000018E-002     1.2459582168697337E-039
   8.6000000000000021E-002     1.3819290194490648E-039
   8.9000000000000024E-002     3.0243126924040943E-040
   9.2000000000000026E-002    -2.5094927774340552E-039
   9.5000000000000029E-002    -1.6141039620461698E-038
   9.8000000000000032E-002    -1.0848224383669016E-038
  0.10100000000000003          1.8519726673116649E-038
  0.10400000000000004          4.5579168353569730E-038
  0.10700000000000004          5.0289349162041018E-038
  0.11000000000000004         -4.8799467218230759E-039
  0.11300000000000004         -1.3918883854591607E-037
  0.11600000000000005         -2.3585886174137949E-037
  0.11900000000000005         -1.2773292699622750E-037
  0.12200000000000005          2.9552127557386417E-037
  0.12500000000000006          8.5333225894669051E-037
  0.12800000000000006          9.6173538329712672E-037
  0.13100000000000006         -7.8053699497609027E-038
  0.13400000000000006         -2.3026461956673712E-036
  0.13700000000000007         -4.2577913436330327E-036
  0.14000000000000007         -3.1128739797018019E-036
  0.14300000000000007          3.3645922237148001E-036
  0.14600000000000007          1.3349357238039074E-035
  0.14900000000000008          1.8606274397907925E-035
  0.15200000000000008          7.2846765243688908E-036
  0.15500000000000008         -2.5932405868179920E-035
  0.15800000000000008         -6.6410968318535065E-035
  0.16100000000000009         -7.4958266120329102E-035
  0.16400000000000009         -6.4054395419364206E-036
  0.16700000000000009          1.4573934145262519E-034
  0.17000000000000010          3.0160164948792554E-034
  0.17300000000000010          2.9314710391250687E-034
  0.17600000000000010         -4.4560467096562812E-035
  0.17899999999999999         -6.9493199409755056E-034
  0.18200000000000000         -1.2960910720062371E-033
  0.18500000000000000         -1.1732143952767875E-033
  0.18800000000000000          2.8230434648261280E-034
  0.19100000000000000          2.9423992055141958E-033
  0.19400000000000001          5.3681456985524471E-033
  0.19700000000000001          4.9673837849306577E-033
  0.20000000000000001         -6.1680118716277475E-034
  0.20300000000000001         -1.1095275108937981E-032
  0.20600000000000002         -2.1406787383122697E-032
  0.20900000000000002         -2.2011204397719815E-032
  0.21200000000000002         -3.3687941251763348E-033
  0.21500000000000002          3.5785130819207185E-032
  0.21800000000000003          8.0249595642945042E-032
  0.22100000000000003          9.7084868558056829E-032
  0.22400000000000003          4.7765715204463236E-032
  0.22700000000000004         -8.5411341501185924E-032
  0.23000000000000004         -2.6826837208537086E-031
  0.23300000000000004         -3.9925539129888182E-031
  0.23600000000000004         -3.3287263685904345E-031
  0.23900000000000005          4.6316197236350368E-032
  0.24200000000000005          7.1539566733781885E-031
  0.24500000000000005          1.4224515324278134E-030
  0.24800000000000005          1.6893689303588668E-030
  0.25100000000000006          9.7260465501348583E-031
  0.25400000000000006         -1.0149252486205502E-030
  0.25700000000000006         -3.9210416747114129E-030
  0.26000000000000006         -6.5167797174690453E-030
  0.26300000000000007         -6.8544710073930871E-030
  0.26600000000000007         -2.9892680290480229E-030
  0.26900000000000007          5.8040924705984850E-030
  0.27200000000000008          1.7728694527451271E-029
  0.27500000000000008          2.7795774187657430E-029
  0.27800000000000008          2.8587742787816892E-029
  0.28100000000000008          1.2928138164725892E-029
  0.28400000000000009         -2.1849200479487778E-029
  0.28700000000000009         -6.9408472249119267E-029
  0.29000000000000009         -1.1201221571792794E-028
  0.29300000000000009         -1.2276951055661730E-028
  0.29600000000000010         -7.4129724957702064E-029
  0.29900000000000010          4.8085512368213226E-029
  0.30200000000000010          2.2902136818918844E-028
  0.30499999999999999          4.1439674450817791E-028
  0.30800000000000000          5.1349036483953033E-028
  0.31100000000000000          4.2159390881073303E-028
  0.31400000000000000          6.2089420276635274E-029
  0.31700000000000000         -5.6072570292625707E-028
  0.32000000000000001         -1.3165154451482822E-027
  0.32300000000000001         -1.9360442062425951E-027
  0.32600000000000001         -2.0534749973180570E-027
  0.32900000000000001         -1.3143137079682682E-027
  0.33200000000000002          4.6339228348462983E-028
  0.33500000000000002          3.1157082209472443E-027
  0.33800000000000002          6.0137133112188984E-027
  0.34100000000000003          8.0751733004854801E-027
  0.34400000000000003          7.9675399945967778E-027
  0.34700000000000003          4.5154713148605248E-027
  0.35000000000000003         -2.7481667610563506E-027
  0.35300000000000004         -1.3032943553866677E-026
  0.35600000000000004         -2.3954886432334778E-026
  0.35900000000000004         -3.1642117200509923E-026
  0.36200000000000004         -3.1449467400018958E-026
  0.36500000000000005         -1.9301233694445037E-026
  0.36800000000000005          6.5378797058470409E-027
  0.37100000000000005          4.3703699889795266E-026
  0.37400000000000005          8.4612817088082980E-026
  0.37700000000000006          1.1665602657002098E-025
  0.38000000000000006          1.2421532261258256E-025
  0.38300000000000006          9.2610542659821986E-026
  0.38600000000000007          1.3482602888612641E-026
  0.38900000000000007         -1.0955831001260169E-025
  0.39200000000000007         -2.5675169270533996E-025
  0.39500000000000007         -3.9143104866205419E-025
  0.39800000000000008         -4.6434186140367238E-025
  0.40100000000000008         -4.2373938272450633E-025
  0.40400000000000008         -2.3045884927423623E-025
  0.40700000000000008          1.2468326642364609E-025
  0.41000000000000009          6.0550082955841397E-025
  0.41300000000000009          1.1224462986432016E-024
  0.41600000000000009          1.5372183974611452E-024
  0.41900000000000009          1.6834187748544665E-024
  0.42200000000000010          1.4033531242378458E-024
  0.42500000000000010          5.9651284230400072E-025
  0.42800000000000010         -7.2957742566021302E-025
  0.43100000000000011         -2.4194101220209657E-024
  0.43400000000000000         -4.1552945561250518E-024
  0.43700000000000000         -5.4819250691941692E-024
  0.44000000000000000         -5.8767654306231569E-024
  0.44300000000000000         -4.8635505286036472E-024
  0.44600000000000001         -2.1540898560821854E-024
  0.44900000000000001          2.2086296826733768E-024
  0.45200000000000001          7.7420739843200111E-024
  0.45500000000000002          1.3489343750637673E-023
  0.45800000000000002          1.8090682602654445E-023
  0.46100000000000002          1.9978173598125157E-023
  0.46400000000000002          1.7685745922845841E-023
  0.46700000000000003          1.0236592211848940E-023
  0.47000000000000003         -2.4596090453560454E-024
  0.47300000000000003         -1.9289775781379120E-023
  0.47600000000000003         -3.7798518010629140E-023
  0.47900000000000004         -5.4312704870352350E-023
  0.48200000000000004         -6.4379881319254290E-023
  0.48500000000000004         -6.3515106358451626E-023
  0.48800000000000004         -4.8181550837319818E-023
  0.49100000000000005         -1.6858391992329078E-023
  0.49400000000000005          2.9007974748377623E-023
  0.49700000000000005          8.4404553253865575E-023
  0.50000000000000000          1.4072655610425565E-022
  0.50300000000000011          1.8648926666409526E-022
  0.50600000000000001          2.0883056285860610E-022
  0.50900000000000012          1.9571314464364472E-022
  0.51200000000000001          1.3857297069404822E-022
  0.51500000000000012          3.5010712633819997E-023
  0.51800000000000002         -1.0898362153241958E-022
  0.52100000000000013         -2.7781842320911835E-022
  0.52400000000000002         -4.4658326312694758E-022
  0.52700000000000014         -5.8314921715507310E-022
  0.53000000000000003         -6.5215035980973374E-022
  0.53300000000000014         -6.2058533932315715E-022
  0.53600000000000003         -4.6443213772433682E-022
  0.53900000000000015         -1.7535512403585021E-022
  0.54200000000000004          2.3364315092030320E-022
  0.54500000000000015          7.2484041306158984E-022
  0.54800000000000004          1.2357928084121971E-021
  0.55100000000000016          1.6834997779462432E-021
  0.55400000000000005          1.9730186152448056E-021
  0.55700000000000016          2.0101628341801884E-021
  0.56000000000000005          1.7171798389111187E-021
  0.56299999999999994          1.0496198939082566E-021
  0.56600000000000006          1.2023349148378742E-023
  0.56899999999999995         -1.3302585818517789E-021
  0.57200000000000006         -2.8458166782958745E-021
  0.57499999999999996         -4.3407975273891550E-021
  0.57800000000000007         -5.5728792195411327E-021
  0.58099999999999996         -6.2759470673764741E-021
  0.58400000000000007         -6.1943100400097695E-021
  0.58699999999999997         -5.1237371956513302E-021
  0.59000000000000008         -2.9549673498085355E-021
  0.59299999999999997          2.8588901248480339E-022
  0.59600000000000009          4.4065811966400516E-021
  0.59899999999999998          9.0341376513526063E-021
  0.60200000000000009          1.3622408212145173E-020
  0.60500000000000020          1.7485986362877965E-020
  0.60800000000000010          1.9862126457652386E-020
  0.61100000000000021          1.9998903310037318E-020
  0.61400000000000010          1.7263935299965508E-020
  0.61700000000000021          1.1263720929440977E-020
  0.62000000000000011          1.9600089208097065E-021
  0.62300000000000022         -1.0233326794135838E-020
  0.62600000000000011         -2.4390811888767649E-020
  0.62900000000000000         -3.9070462065745022E-020
  0.63200000000000012         -5.2377400493013928E-020
  0.63500000000000001         -6.2104548636890629E-020
  0.63800000000000012         -6.5950258819486945E-020
  0.64100000000000001         -6.1803086284643459E-020
  0.64400000000000013         -4.8072380851353984E-020
  0.64700000000000002         -2.4032672880569060E-020
  0.65000000000000013          9.8601654883732957E-021
  0.65300000000000002          5.1728737207770143E-020
  0.65600000000000014          9.8159203390257289E-020
  0.65900000000000003          1.4425690170015905E-019
  0.66200000000000014          1.8390569967828646E-019
  0.66500000000000004          2.1024701304717066E-019
  0.66800000000000015          2.1636983355394321E-019
  0.67100000000000004          1.9617487429696282E-019
  0.67400000000000015          1.4534563747466512E-019
  0.67700000000000005          6.2331629918896978E-020
  0.68000000000000016         -5.0776132425908384E-020
  0.68300000000000005         -1.8760802577409665E-019
  0.68600000000000017         -3.3725144649233913E-019
  0.68900000000000006         -4.8447541710565986E-019
  0.69200000000000017         -6.1053125908432468E-019
  0.69500000000000006         -6.9456416310496049E-019
  0.69800000000000018         -7.1560907982151740E-019
  0.70100000000000007         -6.5506612303175127E-019
  0.70400000000000018         -4.9947834442079721E-019
  0.70700000000000007         -2.4335272400373574E-019
  0.71000000000000019          1.0828883051274996E-019
  0.71300000000000008          5.3798429996869877E-019
  0.71600000000000019          1.0148930887591788E-018
  0.71900000000000008          1.4951701314984841E-018
  0.72200000000000020          1.9239070063355098E-018
  0.72500000000000009          2.2387735069338707E-018
  0.72800000000000020          2.3753237801224760E-018
  0.73100000000000009          2.2737616838313788E-018
  0.73400000000000021          1.8867311048541316E-018
  0.73700000000000010          1.1875078623175455E-018
  0.74000000000000021          1.7778401721874974E-019
  0.74300000000000010         -1.1058921704765250E-018
  0.74600000000000022         -2.5880169554166190E-018
  0.74900000000000011         -4.1533257741686954E-018
  0.75200000000000022         -5.6501009409705022E-018
  0.75500000000000012         -6.8981265759585881E-018
  0.75800000000000001         -7.7014967738803017E-018
  0.76100000000000012         -7.8659373999626412E-018
  0.76400000000000001         -7.2198522658708247E-018
  0.76700000000000013         -5.6376632180543676E-018
  0.77000000000000002         -3.0635265411462808E-018
  0.77300000000000013          4.6694687942430581E-019
  0.77600000000000002          4.8096556466101853E-018
  0.77900000000000014          9.7023981833962471E-018
  0.78200000000000003          1.4765282341031505E-017
  0.78500000000000014          1.9513235765063910E-017
  0.78800000000000003          2.3381964126187019E-017
  0.79100000000000015          2.5767573430211554E-017
  0.79400000000000004          2.6078791350753773E-017
  0.79700000000000015          2.3799312608361965E-017
  0.80000000000000004          1.8556101761180883E-017
  0.80300000000000016          1.0188231457664003E-017
  0.80600000000000005         -1.1903181206213431E-018
  0.80900000000000016         -1.5141478462389859E-017
  0.81200000000000006         -3.0874984004582158E-017
  0.81500000000000017         -4.7248529031013952E-017
  0.81800000000000006         -6.2801995745520927E-017
  0.82100000000000017         -7.5829535776396165E-017
  0.82400000000000007         -8.4490366063474457E-017
  0.82700000000000018         -8.6955907727256735E-017
  0.83000000000000007         -8.1586611390443327E-017
  0.83300000000000018         -6.7127993871859791E-017
  0.83600000000000008         -4.2911635991225821E-017
  0.83900000000000019         -9.0431234472509121E-018
  0.84200000000000008          3.3443003848206363E-017
  0.84500000000000020          8.2481609215251481E-017
  0.84800000000000009          1.3495020800216427E-016
  0.85100000000000020          1.8673289985088406E-016
  0.85400000000000009          2.3288826101082708E-016
  0.85700000000000021          2.6792706563889956E-016
  0.86000000000000010          2.8619581337253815E-016
  0.86300000000000021          2.8235329768861422E-016
  0.86600000000000010          2.5191589163120758E-016
  0.86900000000000022          1.9183733701549101E-016
  0.87200000000000011          1.0107748555563863E-016
  0.87500000000000022         -1.8891462219041549E-017
  0.87800000000000011         -1.6369845510945303E-016
  0.88100000000000001         -3.2586265814702435E-016
  0.88400000000000012         -4.9481176410199992E-016
  0.88700000000000001         -6.5717289337309671E-016
  0.89000000000000012         -7.9736152274922436E-016
  0.89300000000000002         -8.9847759292932926E-016
  0.89600000000000013         -9.4349145289861931E-016
  0.89900000000000002         -9.1667212018216413E-016
  0.90200000000000014         -8.0518582883777205E-016
  0.90500000000000003         -6.0076237748356940E-016
  0.90800000000000014         -3.0130242794268758E-016
  0.91100000000000003          8.7721652933561377E-017
  0.91400000000000015          5.5222043645510714E-016
  0.91700000000000004          1.0689615329765101E-015
  0.92000000000000015          1.6056873764283916E-015
  0.92300000000000004          2.1220060936255375E-015
  0.92600000000000016          2.5711105778559198E-015
  0.92900000000000005          2.9023481191038235E-015
  0.93200000000000016          3.0645894313960784E-015
  0.93500000000000005          3.0102730018391923E-015
  0.93800000000000017          2.6999176675519145E-015
  0.94100000000000006          2.1068484817741925E-015
  0.94400000000000017          1.2217681843427933E-015
  0.94700000000000006          5.6824205397743704E-017
  0.95000000000000018         -1.3512729462126388E-015
  0.95300000000000007         -2.9394880502227920E-015
  0.95600000000000018         -4.6183980777048863E-015
  0.95900000000000007         -6.2742344035508532E-015
  0.96200000000000019         -7.7731104614658642E-015
  0.96500000000000008         -8.9676240991448105E-015
  0.96800000000000019         -9.7056860761350699E-015
  0.97100000000000009         -9.8412750335363543E-015
  0.97400000000000020         -9.2467293462741725E-015
  0.97700000000000009         -7.8258049661070813E-015
  0.98000000000000020         -5.5267342708487944E-015
  0.98300000000000010         -2.3542563517490336E-015
  0.98600000000000021          1.6204173065000049E-015
  0.98900000000000010          6.2528410462394905E-015
  0.99200000000000021          1.1322777511958306E-014
  0.99500000000000011          1.6536818618925483E-014
  0.99800000000000022          2.1536824113584674E-014
   1.0010000000000001          2.5914557456337354E-014
   1.0040000000000002          2.9232509144743261E-014
   1.0070000000000001          3.1050459693670439E-014
   1.0100000000000000          3.0956866371081486E-014
   1.0130000000000001          2.8603462320100009E-014
   1.0160000000000000          2.3741346599970874E-014
   1.0190000000000001          1.6256157516778742E-014
   1.0220000000000000          6.1995587069403812E-015
   1.0250000000000001         -6.1856428949952411E-015
   1.0280000000000000         -2.0449507123879685E-014
   1.0310000000000001         -3.5931024887877240E-014
   1.0340000000000000         -5.1767931379556477E-014
   1.0370000000000001         -6.6922551760090096E-014
   1.0400000000000000         -8.0223799933371629E-014
   1.0430000000000001         -9.0425594209815516E-014
   1.0460000000000000         -9.6279869394885290E-014
   1.0490000000000002         -9.6621738818371193E-014
   1.0520000000000000         -9.0463557194976108E-014
   1.0550000000000002         -7.7091049357606107E-014
   1.0580000000000001         -5.6158438222722622E-014
   1.0610000000000002         -2.7772742570674010E-014
   1.0640000000000001          7.4375751578078555E-015
   1.0670000000000002          4.8277772068445404E-014
   1.0700000000000001          9.2972980668883114E-014
   1.0730000000000002          1.3918872066458983E-013
   1.0760000000000001          1.8409287543719663E-013
   1.0790000000000002          2.2445899468886242E-013
   1.0820000000000001          2.5681160562576128E-013
   1.0850000000000002          2.7761011587037207E-013
   1.0880000000000001          2.8346573790753667E-013
   1.0910000000000002          2.7138221559025535E-013
   1.0940000000000001          2.3900773412012963E-013
   1.0970000000000002          1.8488558830773163E-013
