 -0.39999999999999997          0.0000000000000000     
 -0.39699999999999996          0.0000000000000000     
 -0.39399999999999996          0.0000000000000000     
 -0.39099999999999996          0.0000000000000000     
 -0.38799999999999996          0.0000000000000000     
 -0.38499999999999995          0.0000000000000000     
 -0.38199999999999995          0.0000000000000000     
 -0.37899999999999995          0.0000000000000000     
 -0.37599999999999995          0.0000000000000000     
 -0.37299999999999994          0.0000000000000000     
 -0.37000000000000000          0.0000000000000000     
 -0.36699999999999999          0.0000000000000000     
 -0.36399999999999999          0.0000000000000000     
 -0.36099999999999999          0.0000000000000000     
 -0.35799999999999998          0.0000000000000000     
 -0.35499999999999998          0.0000000000000000     
 -0.35199999999999998          0.0000000000000000     
 -0.34899999999999998          0.0000000000000000     
 -0.34599999999999997          0.0000000000000000     
 -0.34299999999999997          0.0000000000000000     
 -0.33999999999999997          0.0000000000000000     
 -0.33699999999999997          0.0000000000000000     
 -0.33399999999999996          0.0000000000000000     
 -0.33099999999999996          0.0000000000000000     
 -0.32799999999999996          0.0000000000000000     
 -0.32499999999999996          0.0000000000000000     
 -0.32199999999999995          0.0000000000000000     
 -0.31899999999999995          0.0000000000000000     
 -0.31599999999999995          0.0000000000000000     
 -0.31299999999999994          0.0000000000000000     
 -0.30999999999999994          0.0000000000000000     
 -0.30699999999999994          0.0000000000000000     
 -0.30399999999999994          0.0000000000000000     
 -0.30099999999999993          0.0000000000000000     
 -0.29799999999999993          0.0000000000000000     
 -0.29499999999999998          0.0000000000000000     
 -0.29199999999999998          0.0000000000000000     
 -0.28899999999999998          0.0000000000000000     
 -0.28599999999999998          0.0000000000000000     
 -0.28299999999999997          0.0000000000000000     
 -0.27999999999999997          0.0000000000000000     
 -0.27699999999999997          0.0000000000000000     
 -0.27399999999999997          0.0000000000000000     
 -0.27099999999999996          0.0000000000000000     
 -0.26799999999999996          0.0000000000000000     
 -0.26499999999999996          0.0000000000000000     
 -0.26199999999999996          0.0000000000000000     
 -0.25899999999999995          0.0000000000000000     
 -0.25599999999999995          0.0000000000000000     
 -0.25300000000000000          0.0000000000000000     
 -0.24999999999999997          0.0000000000000000     
 -0.24699999999999997          0.0000000000000000     
 -0.24399999999999997          0.0000000000000000     
 -0.24099999999999996          0.0000000000000000     
 -0.23799999999999996          0.0000000000000000     
 -0.23499999999999996          0.0000000000000000     
 -0.23199999999999996          0.0000000000000000     
 -0.22899999999999995          0.0000000000000000     
 -0.22599999999999995          0.0000000000000000     
 -0.22299999999999998          0.0000000000000000     
 -0.21999999999999997          0.0000000000000000     
 -0.21699999999999997          0.0000000000000000     
 -0.21399999999999997          0.0000000000000000     
 -0.21099999999999997          0.0000000000000000     
 -0.20799999999999996          0.0000000000000000     
 -0.20499999999999996          0.0000000000000000     
 -0.20199999999999996          0.0000000000000000     
 -0.19899999999999995          0.0000000000000000     
 -0.19599999999999995          0.0000000000000000     
 -0.19299999999999995          0.0000000000000000     
 -0.18999999999999997          0.0000000000000000     
 -0.18699999999999997          0.0000000000000000     
 -0.18399999999999997          0.0000000000000000     
 -0.18099999999999997          1.7109965915319513E-041
 -0.17799999999999996          0.0000000000000000     
 -0.17499999999999996         -4.5860830051349851E-041
 -0.17199999999999996         -3.1572156924956872E-041
 -0.16899999999999996          1.9201476626140364E-039
 -0.16599999999999995          4.0008113873031187E-041
 -0.16299999999999995         -3.2427414273802887E-039
 -0.15999999999999998         -2.3147545790898774E-039
 -0.15699999999999997          1.8021237891073426E-039
 -0.15399999999999997          9.1021503455026104E-039
 -0.15099999999999997          1.3292439896264852E-038
 -0.14799999999999996         -3.2608384562527718E-038
 -0.14499999999999996         -8.1363981048399932E-038
 -0.14199999999999996          3.4810560719862493E-038
 -0.13899999999999996          3.0451111507575015E-037
 -0.13599999999999995          1.4743544973792686E-037
 -0.13299999999999995         -6.9991652670484283E-037
 -0.12999999999999995         -1.0344346749358048E-036
 -0.12699999999999995          7.0962764179383463E-037
 -0.12399999999999994          3.4055404171428182E-036
 -0.12099999999999994          2.4113674781791876E-036
 -0.11799999999999994         -5.9946983123756724E-036
 -0.11499999999999994         -1.5034563707222166E-035
 -0.11199999999999993         -3.0473880381008592E-036
 -0.10899999999999999          3.9725622281198016E-035
 -0.10599999999999998          6.0222915559053484E-035
 -0.10299999999999998         -3.4324928753005777E-035
  -9.9999999999999978E-002    -2.0882333001103081E-034
  -9.6999999999999975E-002    -1.7870495566950260E-034
  -9.3999999999999972E-002     3.1827668883317341E-034
  -9.0999999999999970E-002     9.0573738799372235E-034
  -8.7999999999999967E-002     4.1078906749639768E-034
  -8.4999999999999964E-002    -1.8370081799196056E-033
  -8.1999999999999962E-002    -3.7108611857858427E-033
  -7.8999999999999959E-002    -3.9746719895418560E-034
  -7.5999999999999956E-002     9.2926514885106054E-033
  -7.2999999999999954E-002     1.4415377405825582E-032
  -6.9999999999999951E-002    -3.4787361584285903E-033
  -6.6999999999999948E-002    -4.2533836743618233E-032
  -6.3999999999999946E-002    -5.3533872275890191E-032
  -6.0999999999999943E-002     3.0028404381190364E-032
  -5.7999999999999940E-002     1.8222896244736805E-031
  -5.4999999999999938E-002     1.9794263215715946E-031
  -5.1999999999999935E-002    -1.6391605211517770E-031
  -4.8999999999999932E-002    -7.5209159330495891E-031
  -4.5999999999999985E-002    -7.3951031962826736E-031
  -4.2999999999999983E-002     7.4831284218395002E-031
  -3.9999999999999980E-002     3.0067546295489367E-030
  -3.6999999999999977E-002     2.8272306335446925E-030
  -3.3999999999999975E-002    -3.0045808217128562E-030
  -3.0999999999999972E-002    -1.1697324676176959E-029
  -2.7999999999999969E-002    -1.1170478340537732E-029
  -2.4999999999999967E-002     1.0753442706088485E-029
  -2.1999999999999964E-002     4.4328739506190644E-029
  -1.8999999999999961E-002     4.5246227225434310E-029
  -1.5999999999999959E-002    -3.3565328859458657E-029
  -1.2999999999999956E-002    -1.6267004776352402E-028
  -9.9999999999999534E-003    -1.8491003221811494E-028
  -6.9999999999999507E-003     8.3112988443870266E-029
  -3.9999999999999480E-003     5.7239952881669885E-028
  -9.9999999999994538E-004     7.4829088363456649E-028
   2.0000000000000573E-003    -9.8482539585978677E-029
   5.0000000000000600E-003    -1.9016860144988223E-027
   8.0000000000000626E-003    -2.9409435307270784E-027
   1.1000000000000065E-002    -5.4454797285286387E-028
   1.4000000000000068E-002     5.8140944310484107E-027
   1.7000000000000015E-002     1.1025543432829158E-026
   2.0000000000000018E-002     5.4539916522192495E-027
   2.3000000000000020E-002    -1.5595044811816278E-026
   2.6000000000000023E-002    -3.8714959355290128E-026
   2.9000000000000026E-002    -3.1209326677966174E-026
   3.2000000000000028E-002     3.2496902992101150E-026
   3.5000000000000031E-002     1.2449356765145096E-025
   3.8000000000000034E-002     1.4260675009582749E-025
   4.1000000000000036E-002    -2.5902400174408113E-026
   4.4000000000000039E-002    -3.5403835668521125E-025
   4.7000000000000042E-002    -5.5688828946776375E-025
   5.0000000000000044E-002    -2.0670739531513717E-025
   5.3000000000000047E-002     8.2830443451275998E-025
   5.6000000000000050E-002     1.8815292452842178E-024
   5.9000000000000052E-002     1.5387235681734182E-024
   6.2000000000000055E-002    -1.2518815646819421E-024
   6.5000000000000058E-002    -5.4003614042840835E-024
   6.8000000000000060E-002    -6.8892928304656529E-024
   7.1000000000000063E-002    -9.9901578495878461E-025
   7.4000000000000066E-002     1.2337783861294550E-023
   7.7000000000000068E-002     2.3801744880572367E-023
   8.0000000000000016E-002     1.7122854529541788E-023
   8.3000000000000018E-002    -1.7506913707306789E-023
   8.6000000000000021E-002    -6.5193121145251033E-023
   8.9000000000000024E-002    -8.0933105641196741E-023
   9.2000000000000026E-002    -1.5285630187928208E-023
   9.5000000000000029E-002     1.3124938915879045E-022
   9.8000000000000032E-002     2.6328862151742191E-022
  0.10100000000000003          2.1539877147850571E-022
  0.10400000000000004         -1.2128062330437014E-022
  0.10700000000000004         -6.2692568109748045E-022
  0.11000000000000004         -8.8946586112218497E-022
  0.11300000000000004         -4.0969384650808526E-022
  0.11600000000000005          9.2932938356246485E-022
  0.11900000000000005          2.4218412309919882E-021
  0.12200000000000005          2.6196131889000028E-021
  0.12500000000000006          2.5438786612304530E-022
  0.12800000000000006         -4.3092693945989259E-021
  0.13100000000000006         -8.1798430334374393E-021
  0.13400000000000006         -6.9241672553397773E-021
  0.13700000000000007          2.1788616623786560E-021
  0.14000000000000007          1.6195314711452168E-020
  0.14300000000000007          2.5256312360901974E-020
  0.14600000000000007          1.7023047812745532E-020
  0.14900000000000008         -1.3406080504586934E-020
  0.15200000000000008         -5.3744340585705998E-020
  0.15500000000000008         -7.4001236023164468E-020
  0.15800000000000008         -4.1653336078962408E-020
  0.16100000000000009          5.1060739299944894E-020
  0.16400000000000009          1.6412132166083285E-019
  0.16700000000000009          2.1345418236153757E-019
  0.17000000000000010          1.1423582833883287E-019
  0.17300000000000010         -1.4908539856486936E-019
  0.17600000000000010         -4.6784733112018676E-019
  0.17899999999999999         -6.2152377986444153E-019
  0.18200000000000000         -3.8419886809730859E-019
  0.18500000000000000          3.0641183391821599E-019
  0.18800000000000000          1.2110747803360362E-018
  0.19100000000000000          1.7975708969905537E-018
  0.19400000000000001          1.4596487092553468E-018
  0.19700000000000001         -1.0639535687157880E-019
  0.20000000000000001         -2.5475818753745518E-018
  0.20300000000000001         -4.7601207536559675E-018
  0.20600000000000002         -5.2207888686534883E-018
  0.20900000000000002         -2.7124898842334491E-018
  0.21200000000000002          2.8276615912280585E-018
  0.21500000000000002          9.7679058384321827E-018
  0.21800000000000003          1.4949345781743912E-017
  0.22100000000000003          1.4716949228182936E-017
  0.22400000000000003          6.5855324138903114E-018
  0.22700000000000004         -9.0584449798243283E-018
  0.23000000000000004         -2.8007140791392565E-017
  0.23300000000000004         -4.2711925984879177E-017
  0.23600000000000004         -4.4444300510002239E-017
  0.23900000000000005         -2.6738808787935526E-017
  0.24200000000000005          1.0948135513692772E-017
  0.24500000000000005          6.0849417407288000E-017
  0.24800000000000005          1.0717399118151933E-016
  0.25100000000000006          1.2977544366517447E-016
  0.25400000000000006          1.1070195835105637E-016
  0.25700000000000006          4.1804561198344415E-017
  0.26000000000000006         -6.9301239258875716E-017
  0.26300000000000007         -1.9757100437723148E-016
  0.26600000000000007         -3.0466744640453632E-016
  0.26900000000000007         -3.4849239602464288E-016
  0.27200000000000008         -2.9574167435179166E-016
  0.27500000000000008         -1.3389930097766073E-016
  0.27800000000000008          1.2095482878107778E-016
  0.28100000000000008          4.2301756985489561E-016
  0.28400000000000009          7.0309278614273794E-016
  0.28700000000000009          8.8140323014790520E-016
  0.29000000000000009          8.8463510873817686E-016
  0.29300000000000009          6.6413727157566109E-016
  0.29600000000000010          2.1185724206788118E-016
  0.29900000000000010         -4.2947842904903618E-016
  0.30200000000000010         -1.1648870211466482E-015
  0.30499999999999999         -1.8561696584591716E-015
  0.30800000000000000         -2.3413323692460321E-015
  0.31100000000000000         -2.4620717116283610E-015
  0.31400000000000000         -2.0951605726199252E-015
  0.31700000000000000         -1.1826226800912740E-015
  0.32000000000000001          2.4427013380063452E-016
  0.32300000000000001          2.0514902823225257E-015
  0.32600000000000001          4.0023917257737073E-015
  0.32900000000000001          5.7738434749403843E-015
  0.33200000000000002          6.9895585319389927E-015
  0.33500000000000002          7.2699079857622639E-015
  0.33800000000000002          6.2949687886122067E-015
  0.34100000000000003          3.8742547753060876E-015
  0.34400000000000003          1.3241486843630180E-017
  0.34700000000000003         -5.0350740121998381E-015
  0.35000000000000003         -1.0746050960056151E-014
  0.35300000000000004         -1.6337843094672175E-014
  0.35600000000000004         -2.0831806610396998E-014
  0.35900000000000004         -2.3161193254500903E-014
  0.36200000000000004         -2.2322036293707073E-014
  0.36500000000000005         -1.7552310125684733E-014
  0.36800000000000005         -8.5155737983337078E-015
  0.37100000000000005          4.5396564091326955E-015
  0.37400000000000005          2.0675815509747770E-014
  0.37700000000000006          3.8244662509337197E-014
  0.38000000000000006          5.4967396771152322E-014
  0.38300000000000006          6.8122918513313049E-014
  0.38600000000000007          7.4838145797242242E-014
  0.38900000000000007          7.2459028831466967E-014
  0.39200000000000007          5.8967648415699929E-014
  0.39500000000000007          3.3398049013889259E-014
  0.39800000000000008         -3.8030295382262185E-015
  0.40100000000000008         -5.0527004341811786E-014
  0.40400000000000008         -1.0291858594870648E-013
  0.40700000000000008         -1.5549130639402750E-013
  0.41000000000000009         -2.0146679983289608E-013
  0.41300000000000009         -2.3333555849748209E-013
  0.41600000000000009         -2.4361541310769159E-013
  0.41900000000000009         -2.2575362286962924E-013
  0.42200000000000010         -1.7510310890450557E-013
  0.42500000000000010         -8.9869315412857136E-014
  0.42800000000000010          2.8075674111642121E-014
  0.43100000000000011          1.7263321956061078E-013
  0.43400000000000000          3.3327315301376587E-013
  0.43700000000000000          4.9527780335537377E-013
  0.44000000000000000          6.4048754210154074E-013
  0.44300000000000000          7.4856930594905642E-013
  0.44600000000000001          7.9876579374877491E-013
  0.44900000000000001          7.7204507261090833E-013
  0.45200000000000001          6.5347986873614501E-013
  0.45500000000000002          4.3465797796917913E-013
  0.45800000000000002          1.1586931025681870E-013
  0.46100000000000002         -2.9218717835944550E-013
  0.46400000000000002         -7.6741860679213831E-013
  0.46700000000000003         -1.2763161597985624E-012
  0.47000000000000003         -1.7750261533329504E-012
  0.47300000000000003         -2.2116194698329835E-012
  0.47600000000000003         -2.5295091466443121E-012
  0.47900000000000004         -2.6719349093669669E-012
  0.48200000000000004         -2.5872180552191280E-012
  0.48500000000000004         -2.2344502608807057E-012
  0.48800000000000004         -1.5891504664954605E-012
  0.49100000000000005         -6.4843670288062511E-013
  0.49400000000000005          5.6491463150072772E-013
  0.49700000000000005          1.9999393689657809E-012
  0.50000000000000000          3.5769867382924752E-012
  0.50300000000000011          5.1895900998537122E-012
  0.50600000000000001          6.7089354947157535E-012
  0.50900000000000012          7.9909255050593379E-012
  0.51200000000000001          8.8856829695103701E-012
  0.51500000000000012          9.2491342471746029E-012
  0.51800000000000002          8.9560163187178790E-012
  0.52100000000000013          7.9135998169220946E-012
  0.52400000000000002          6.0751806564524918E-012
  0.52700000000000014          3.4520888227039799E-012
  0.53000000000000003          1.2340968131019738E-013
  0.53300000000000014         -3.7577538244608269E-012
  0.53600000000000003         -7.9624983445544716E-012
  0.53900000000000015         -1.2189376051095635E-011
  0.54200000000000004         -1.6073161870984429E-011
  0.54500000000000015         -1.9199555643450826E-011
  0.54800000000000004         -2.1124947793720233E-011
  0.55100000000000016         -2.1401326853368994E-011
  0.55400000000000005         -1.9605080806708504E-011
  0.55700000000000016         -1.5367987946990308E-011
  0.56000000000000005         -8.4096353572030155E-012
  0.56299999999999994          1.4312579445434443E-012
  0.56600000000000006          1.4167750489395446E-011
  0.56899999999999995          2.9639980873816844E-011
  0.57200000000000006          4.7495582870395798E-011
  0.57499999999999996          6.7177930025172736E-011
  0.57800000000000007          8.7920873050382962E-011
  0.58099999999999996          1.0875206977494215E-010
  0.58400000000000007          1.2850283278863276E-010
  0.58699999999999997          1.4582469270845407E-010
  0.59000000000000008          1.5921214594629674E-010
  0.59299999999999997          1.6702541246940528E-010
  0.59600000000000009          1.6751230173788851E-010
  0.59899999999999998          1.5883231787223163E-010
  0.60200000000000009          1.3906617457675491E-010
  0.60500000000000020          1.0621884789256723E-010
  0.60800000000000010          5.8207827805022167E-011
  0.61100000000000021         -7.1663411196452525E-012
  0.61400000000000010         -9.2273407979834149E-011
  0.61700000000000021         -1.9972752486133519E-010
  0.62000000000000011         -3.3248874689048851E-010
  0.62300000000000022         -4.9399607824023824E-010
  0.62600000000000011         -6.8832461765571644E-010
  0.62900000000000000         -9.2037350127394663E-010
  0.63200000000000012         -1.1961054247036360E-009
  0.63500000000000001         -1.5227583329320809E-009
  0.63800000000000012         -1.9091570500146249E-009
  0.64100000000000001         -2.3660270531148365E-009
  0.64400000000000013         -2.9063161202387773E-009
  0.64700000000000002         -3.5455732289310410E-009
  0.65000000000000013         -4.3023700483024259E-009
  0.65300000000000002         -5.1987139582653348E-009
  0.65600000000000014         -6.2605419562071263E-009
  0.65900000000000003         -7.5182408760310477E-009
  0.66200000000000014         -9.0071276625555356E-009
  0.66500000000000004         -1.0768200260314801E-008
  0.66800000000000015         -1.2848681890171659E-008
  0.67100000000000004         -1.5302865994183989E-008
  0.67400000000000015         -1.8192825975920607E-008
  0.67700000000000005         -2.1589142119425906E-008
  0.68000000000000016         -2.5572206652982340E-008
  0.68300000000000005         -3.0233082157859561E-008
  0.68600000000000017         -3.5674660075041849E-008
  0.68900000000000006         -4.2012661093879820E-008
  0.69200000000000017         -4.9377451712686482E-008
  0.69500000000000006         -5.7915109016984074E-008
  0.69800000000000018         -6.7788796122377825E-008
  0.70100000000000007         -7.9180603454671936E-008
  0.70400000000000018         -9.2294153626008598E-008
  0.70700000000000007         -1.0735395606965003E-007
  0.71000000000000019         -1.2460891387019806E-007
  0.71300000000000008         -1.4433401494762793E-007
  0.71600000000000019         -1.6683123365987609E-007
  0.71900000000000008         -1.9243280029749949E-007
  0.72200000000000020         -2.2150114025375910E-007
  0.72500000000000009         -2.5443087161256016E-007
  0.72800000000000020         -2.9164953994818045E-007
  0.73100000000000009         -3.3362138725042253E-007
  0.73400000000000021         -3.8084334852010198E-007
  0.73700000000000010         -4.3385004246144855E-007
  0.74000000000000021         -4.9321462893555224E-007
  0.74300000000000010         -5.5954261683676766E-007
  0.74600000000000022         -6.3347439519047328E-007
  0.74900000000000011         -7.1568424359605370E-007
  0.75200000000000022         -8.0687883051118483E-007
  0.75500000000000012         -9.0779802239154568E-007
  0.75800000000000001         -1.0191946569261581E-006
  0.76100000000000012         -1.1418474244791738E-006
  0.76400000000000001         -1.2765537891883754E-006
  0.76700000000000013         -1.4241184516989982E-006
  0.77000000000000002         -1.5853318038462132E-006
  0.77300000000000013         -1.7609964680085898E-006
  0.77600000000000002         -1.9518867369726505E-006
  0.77900000000000014         -2.1587465484126999E-006
  0.78200000000000003         -2.3822666823341105E-006
  0.78500000000000014         -2.6230965124747319E-006
  0.78800000000000003         -2.8818094859603478E-006
  0.79100000000000015         -3.1588936574488425E-006
  0.79400000000000004         -3.4547114250034025E-006
  0.79700000000000015         -3.7695502791527125E-006
  0.80000000000000004         -4.1034841666250097E-006
  0.80300000000000016         -4.4564629223754960E-006
  0.80600000000000005         -4.8282643754454267E-006
  0.80900000000000016         -5.2184368441115577E-006
  0.81200000000000006         -5.6263098548706967E-006
  0.81500000000000017         -6.0509719235345236E-006
  0.81800000000000006         -6.4912013408202201E-006
  0.82100000000000017         -6.9455725577939209E-006
  0.82400000000000007         -7.4122648358490851E-006
  0.82700000000000018         -7.8892428491166692E-006
  0.83000000000000007         -8.3740181131658352E-006
  0.83300000000000018         -8.8638065754610277E-006
  0.83600000000000008         -9.3554754660621529E-006
  0.83900000000000019         -9.8455622820150547E-006
  0.84200000000000008         -1.0330101530161260E-005
  0.84500000000000020         -1.0805068528682628E-005
  0.84800000000000009         -1.1265795777022357E-005
  0.85100000000000020         -1.1707331954113060E-005
  0.85400000000000009         -1.2124556585779584E-005
  0.85700000000000021         -1.2511975057220985E-005
  0.86000000000000010         -1.2863820139244819E-005
  0.86300000000000021         -1.3174121453967644E-005
  0.86600000000000010         -1.3436738906185942E-005
  0.86900000000000022         -1.3645403968756598E-005
  0.87200000000000011         -1.3793803837971672E-005
  0.87500000000000022         -1.3875582545358359E-005
  0.87800000000000011         -1.3884677726347303E-005
  0.88100000000000001         -1.3814668446866986E-005
  0.88400000000000012         -1.3659822660909586E-005
  0.88700000000000001         -1.3414494877476631E-005
  0.89000000000000012         -1.3073518621011443E-005
  0.89300000000000002         -1.2632147310375016E-005
  0.89600000000000013         -1.2086092030530460E-005
  0.89900000000000002         -1.1431904586003884E-005
  0.90200000000000014         -1.0666691025347784E-005
  0.90500000000000003         -9.7886699031694631E-006
  0.90800000000000014         -8.7964272954815854E-006
  0.91100000000000003         -7.6900025290597872E-006
  0.91400000000000015         -6.4702438071662951E-006
  0.91700000000000004         -5.1391102409280444E-006
  0.92000000000000015         -3.6997140400691192E-006
  0.92300000000000004         -2.1563500552996824E-006
  0.92600000000000016         -5.1442531616595708E-007
  0.92900000000000005          1.2194204107909003E-006
  0.93200000000000016          3.0371054851320994E-006
  0.93500000000000005          4.9299352009888218E-006
  0.93800000000000017          6.8874323018382387E-006
  0.94100000000000006          8.8983455378203772E-006
  0.94400000000000017          1.0950361125782258E-005
  0.94700000000000006          1.3030323187031626E-005
  0.95000000000000018          1.5123981158434891E-005
  0.95300000000000007          1.7216471863708608E-005
  0.95600000000000018          1.9292449931549938E-005
  0.95900000000000007          2.1335943141354089E-005
  0.96200000000000019          2.3330452455904328E-005
  0.96500000000000008          2.5259722820409206E-005
  0.96800000000000019          2.7107423341580161E-005
  0.97100000000000009          2.8857303287129733E-005
  0.97400000000000020          3.0493271993893060E-005
  0.97700000000000009          3.2000208330825347E-005
  0.98000000000000020          3.3363417939274476E-005
  0.98300000000000010          3.4569027885989559E-005
  0.98600000000000021          3.5604527558575919E-005
  0.98900000000000010          3.6458603292121950E-005
  0.99200000000000021          3.7121162728441683E-005
  0.99500000000000011          3.7583367747036825E-005
  0.99800000000000022          3.7838500642066526E-005
   1.0010000000000001          3.7881469191903651E-005
   1.0040000000000002          3.7708675749706556E-005
   1.0070000000000001          3.7318747703334818E-005
   1.0100000000000000          3.6712063388850413E-005
   1.0130000000000001          3.5891205335075683E-005
   1.0160000000000000          3.4860226978348946E-005
   1.0190000000000001          3.3625454305187115E-005
   1.0220000000000000          3.2194910433146994E-005
   1.0250000000000001          3.0578522652246146E-005
   1.0280000000000000          2.8787800214060170E-005
   1.0310000000000001          2.6835801858546396E-005
   1.0340000000000000          2.4737250048586773E-005
   1.0370000000000001          2.2507913283124656E-005
   1.0400000000000000          2.0164449328892875E-005
   1.0430000000000001          1.7724961476710299E-005
   1.0460000000000000          1.5208070008008855E-005
   1.0490000000000002          1.2632787482989591E-005
   1.0520000000000000          1.0018690102962117E-005
   1.0550000000000002          7.3853047328555381E-006
   1.0580000000000001          4.7523113206654932E-006
   1.0610000000000002          2.1385684636278791E-006
   1.0640000000000001         -4.3690633074785289E-007
   1.0670000000000002         -2.9560682897606737E-006
   1.0700000000000001         -5.4019971621581764E-006
   1.0730000000000002         -7.7582885201733281E-006
   1.0760000000000001         -1.0009762079833038E-005
   1.0790000000000002         -1.2142766302443831E-005
   1.0820000000000001         -1.4145098114708084E-005
   1.0850000000000002         -1.6005801095935092E-005
   1.0880000000000001         -1.7715544338567336E-005
   1.0910000000000002         -1.9266799667052118E-005
   1.0940000000000001         -2.0653502245036115E-005
   1.0970000000000002         -2.1871199467737162E-005
