 -0.39999999999999997          0.0000000000000000     
 -0.39699999999999996          0.0000000000000000     
 -0.39399999999999996          0.0000000000000000     
 -0.39099999999999996          0.0000000000000000     
 -0.38799999999999996          0.0000000000000000     
 -0.38499999999999995          0.0000000000000000     
 -0.38199999999999995          0.0000000000000000     
 -0.37899999999999995          0.0000000000000000     
 -0.37599999999999995          0.0000000000000000     
 -0.37299999999999994          0.0000000000000000     
 -0.37000000000000000          0.0000000000000000     
 -0.36699999999999999          0.0000000000000000     
 -0.36399999999999999          0.0000000000000000     
 -0.36099999999999999          0.0000000000000000     
 -0.35799999999999998          0.0000000000000000     
 -0.35499999999999998          0.0000000000000000     
 -0.35199999999999998          0.0000000000000000     
 -0.34899999999999998          0.0000000000000000     
 -0.34599999999999997          0.0000000000000000     
 -0.34299999999999997          0.0000000000000000     
 -0.33999999999999997          0.0000000000000000     
 -0.33699999999999997          0.0000000000000000     
 -0.33399999999999996          0.0000000000000000     
 -0.33099999999999996          0.0000000000000000     
 -0.32799999999999996          0.0000000000000000     
 -0.32499999999999996          0.0000000000000000     
 -0.32199999999999995          0.0000000000000000     
 -0.31899999999999995          0.0000000000000000     
 -0.31599999999999995          0.0000000000000000     
 -0.31299999999999994          0.0000000000000000     
 -0.30999999999999994          0.0000000000000000     
 -0.30699999999999994          0.0000000000000000     
 -0.30399999999999994          0.0000000000000000     
 -0.30099999999999993          0.0000000000000000     
 -0.29799999999999993          0.0000000000000000     
 -0.29499999999999998          0.0000000000000000     
 -0.29199999999999998          0.0000000000000000     
 -0.28899999999999998          0.0000000000000000     
 -0.28599999999999998          0.0000000000000000     
 -0.28299999999999997          0.0000000000000000     
 -0.27999999999999997          0.0000000000000000     
 -0.27699999999999997          0.0000000000000000     
 -0.27399999999999997          0.0000000000000000     
 -0.27099999999999996          0.0000000000000000     
 -0.26799999999999996          0.0000000000000000     
 -0.26499999999999996          0.0000000000000000     
 -0.26199999999999996          0.0000000000000000     
 -0.25899999999999995          0.0000000000000000     
 -0.25599999999999995          0.0000000000000000     
 -0.25300000000000000          0.0000000000000000     
 -0.24999999999999997          0.0000000000000000     
 -0.24699999999999997          0.0000000000000000     
 -0.24399999999999997          0.0000000000000000     
 -0.24099999999999996          0.0000000000000000     
 -0.23799999999999996          0.0000000000000000     
 -0.23499999999999996          0.0000000000000000     
 -0.23199999999999996          0.0000000000000000     
 -0.22899999999999995          0.0000000000000000     
 -0.22599999999999995          0.0000000000000000     
 -0.22299999999999998          0.0000000000000000     
 -0.21999999999999997          0.0000000000000000     
 -0.21699999999999997          0.0000000000000000     
 -0.21399999999999997          0.0000000000000000     
 -0.21099999999999997          0.0000000000000000     
 -0.20799999999999996          0.0000000000000000     
 -0.20499999999999996          0.0000000000000000     
 -0.20199999999999996          0.0000000000000000     
 -0.19899999999999995          0.0000000000000000     
 -0.19599999999999995          0.0000000000000000     
 -0.19299999999999995          0.0000000000000000     
 -0.18999999999999997          0.0000000000000000     
 -0.18699999999999997          0.0000000000000000     
 -0.18399999999999997          0.0000000000000000     
 -0.18099999999999997          0.0000000000000000     
 -0.17799999999999996          0.0000000000000000     
 -0.17499999999999996          0.0000000000000000     
 -0.17199999999999996          0.0000000000000000     
 -0.16899999999999996          0.0000000000000000     
 -0.16599999999999995          0.0000000000000000     
 -0.16299999999999995          0.0000000000000000     
 -0.15999999999999998          0.0000000000000000     
 -0.15699999999999997          0.0000000000000000     
 -0.15399999999999997          0.0000000000000000     
 -0.15099999999999997          0.0000000000000000     
 -0.14799999999999996          0.0000000000000000     
 -0.14499999999999996          0.0000000000000000     
 -0.14199999999999996          0.0000000000000000     
 -0.13899999999999996          0.0000000000000000     
 -0.13599999999999995          0.0000000000000000     
 -0.13299999999999995          0.0000000000000000     
 -0.12999999999999995          0.0000000000000000     
 -0.12699999999999995          0.0000000000000000     
 -0.12399999999999994          0.0000000000000000     
 -0.12099999999999994          0.0000000000000000     
 -0.11799999999999994          0.0000000000000000     
 -0.11499999999999994          0.0000000000000000     
 -0.11199999999999993          0.0000000000000000     
 -0.10899999999999999          0.0000000000000000     
 -0.10599999999999998          0.0000000000000000     
 -0.10299999999999998          0.0000000000000000     
  -9.9999999999999978E-002     0.0000000000000000     
  -9.6999999999999975E-002     0.0000000000000000     
  -9.3999999999999972E-002     0.0000000000000000     
  -9.0999999999999970E-002     0.0000000000000000     
  -8.7999999999999967E-002     0.0000000000000000     
  -8.4999999999999964E-002     0.0000000000000000     
  -8.1999999999999962E-002     0.0000000000000000     
  -7.8999999999999959E-002     0.0000000000000000     
  -7.5999999999999956E-002     0.0000000000000000     
  -7.2999999999999954E-002     0.0000000000000000     
  -6.9999999999999951E-002     0.0000000000000000     
  -6.6999999999999948E-002     0.0000000000000000     
  -6.3999999999999946E-002     0.0000000000000000     
  -6.0999999999999943E-002     0.0000000000000000     
  -5.7999999999999940E-002     0.0000000000000000     
  -5.4999999999999938E-002     0.0000000000000000     
  -5.1999999999999935E-002     0.0000000000000000     
  -4.8999999999999932E-002     0.0000000000000000     
  -4.5999999999999985E-002     0.0000000000000000     
  -4.2999999999999983E-002     0.0000000000000000     
  -3.9999999999999980E-002     0.0000000000000000     
  -3.6999999999999977E-002     0.0000000000000000     
  -3.3999999999999975E-002     0.0000000000000000     
  -3.0999999999999972E-002     0.0000000000000000     
  -2.7999999999999969E-002     0.0000000000000000     
  -2.4999999999999967E-002     0.0000000000000000     
  -2.1999999999999964E-002     0.0000000000000000     
  -1.8999999999999961E-002     4.0039505159356117E-042
  -1.5999999999999959E-002     0.0000000000000000     
  -1.2999999999999956E-002    -1.2675025697539117E-041
  -9.9999999999999534E-003     7.7303323943483655E-044
  -6.9999999999999507E-003     4.7737935612767724E-040
  -3.9999999999999480E-003     3.3263029116425839E-040
  -9.9999999999994538E-004    -4.6424336400592565E-040
   2.0000000000000573E-003    -1.6733998073091614E-039
   5.0000000000000600E-003    -1.5110620353815749E-039
   8.0000000000000626E-003     2.9899178331095316E-039
   1.1000000000000065E-002     6.5280842828275067E-039
   1.4000000000000068E-002     5.4940989023988553E-039
   1.7000000000000015E-002    -1.0029197060081925E-038
   2.0000000000000018E-002    -3.0434350883281262E-038
   2.3000000000000020E-002    -2.7179732184041418E-038
   2.6000000000000023E-002     3.6575180824093073E-038
   2.9000000000000026E-002     1.2579213852561538E-037
   3.2000000000000028E-002     1.3918740433642820E-037
   3.5000000000000031E-002    -5.8153900698076353E-038
   3.8000000000000034E-002    -4.4092118016203721E-037
   4.1000000000000036E-002    -6.2489001928681169E-037
   4.4000000000000039E-002    -2.4789027886340901E-038
   4.7000000000000042E-002     1.4618024434692410E-036
   5.0000000000000044E-002     2.6238697148339740E-036
   5.3000000000000047E-002     1.1349683300123573E-036
   5.6000000000000050E-002    -4.2139212650384425E-036
   5.9000000000000052E-002    -1.0127759979697892E-035
   6.2000000000000055E-002    -8.0825752635339146E-036
   6.5000000000000058E-002     9.2387266178185557E-036
   6.8000000000000060E-002     3.5192750566350069E-035
   7.1000000000000063E-002     4.1543719993752215E-035
   7.4000000000000066E-002    -6.3190894331655452E-036
   7.7000000000000068E-002    -1.0600654658652154E-034
   8.0000000000000016E-002    -1.7615739624363606E-034
   8.3000000000000018E-002    -7.8317334493199944E-035
   8.6000000000000021E-002     2.5331668795382220E-034
   8.9000000000000024E-002     6.3215673168440727E-034
   9.2000000000000026E-002     5.8352325089137307E-034
   9.5000000000000029E-002    -3.3316239053829877E-034
   9.8000000000000032E-002    -1.8816225593094687E-033
  0.10100000000000003         -2.6980650124408016E-033
  0.10400000000000004         -8.4782117446405296E-034
  0.10700000000000004          4.2496503811029459E-033
  0.11000000000000004          9.5724195163929210E-033
  0.11300000000000004          8.4887992450612955E-033
  0.11600000000000005         -4.6436732318157910E-033
  0.11900000000000005         -2.6302446097665312E-032
  0.12200000000000005         -3.8593801848806188E-032
  0.12500000000000006         -1.6453753186567438E-032
  0.12800000000000006          4.9122894014970912E-032
  0.13100000000000006          1.2401964999843849E-031
  0.13400000000000006          1.2863450656371177E-031
  0.13700000000000007         -1.3224206160716520E-032
  0.14000000000000007         -2.8240960792215356E-031
  0.14300000000000007         -4.9491212316200589E-031
  0.14600000000000007         -3.5457446669520693E-031
  0.14900000000000008          3.1943468740669939E-031
  0.15200000000000008          1.2853002919006001E-030
  0.15500000000000008          1.7575054439118789E-030
  0.15800000000000008          7.6729082335627169E-031
  0.16100000000000009         -1.9630916112507983E-030
  0.16400000000000009         -5.1165707001766694E-030
  0.16700000000000009         -5.7674913225247959E-030
  0.17000000000000010         -1.0178241435139087E-030
  0.17300000000000010          9.0185782388247222E-030
  0.17600000000000010          1.8782885041369420E-029
  0.17899999999999999          1.8249565230095203E-029
  0.18200000000000000         -9.1550170148771243E-031
  0.18500000000000000         -3.5869304864717201E-029
  0.18800000000000000         -6.6200644283870307E-029
  0.19100000000000000         -5.9005934336982513E-029
  0.19400000000000001          1.0497791962993616E-029
  0.19700000000000001          1.2980275069570846E-028
  0.20000000000000001          2.3099472081183185E-028
  0.20300000000000001          2.0768285155828238E-028
  0.20600000000000002         -2.2103384972494695E-029
  0.20900000000000002         -4.2704466183368157E-028
  0.21200000000000002         -8.0265403686420081E-028
  0.21500000000000002         -8.0906775808136212E-028
  0.21800000000000003         -1.4402131797085913E-028
  0.22100000000000003          1.1908180205606710E-027
  0.22400000000000003          2.6689959769992329E-027
  0.22700000000000004          3.2575465447085391E-027
  0.23000000000000004          1.8180270636692409E-027
  0.23300000000000004         -2.1451041459402459E-027
  0.23600000000000004         -7.6835157488596596E-027
  0.23900000000000005         -1.2059147250798550E-026
  0.24200000000000005         -1.1367844491925041E-026
  0.24500000000000005         -2.3312565111507376E-027
  0.24800000000000005          1.5158521472197920E-026
  0.25100000000000006          3.5861462521026522E-026
  0.25400000000000006          4.8925155478455732E-026
  0.25700000000000006          4.0836336127352042E-026
  0.26000000000000006          1.7672880193648867E-027
  0.26300000000000007         -6.6338075424525536E-026
  0.26600000000000007         -1.4348973914320802E-025
  0.26900000000000007         -1.9169958768195929E-025
  0.27200000000000008         -1.6489548271606821E-025
  0.27500000000000008         -2.8906953886735522E-026
  0.27800000000000008          2.1341142216221697E-025
  0.28100000000000008          5.0204082469347066E-025
  0.28400000000000009          7.1740109820972497E-025
  0.28700000000000009          7.0611229788921008E-025
  0.29000000000000009          3.3687524105594836E-025
  0.29300000000000009         -4.2479456183380338E-025
  0.29600000000000010         -1.4482545001368576E-024
  0.29900000000000010         -2.4098816771289870E-024
  0.30200000000000010         -2.8373496543019509E-024
  0.30499999999999999         -2.2406908750423768E-024
  0.30800000000000000         -3.1462006322075225E-025
  0.31100000000000000          2.8398345633859054E-024
  0.31400000000000000          6.5563604624510118E-024
  0.31700000000000000          9.5989329332899973E-024
  0.32000000000000001          1.0381855881806351E-023
  0.32300000000000001          7.4265735680811734E-024
  0.32600000000000001         -1.7055335532394545E-026
  0.32900000000000001         -1.1348169167262480E-023
  0.33200000000000002         -2.4220555499420701E-023
  0.33500000000000002         -3.4614463057459168E-023
  0.33800000000000002         -3.7540414138038157E-023
  0.34100000000000003         -2.8383109349949914E-023
  0.34400000000000003         -4.6757897064466350E-024
  0.34700000000000003          3.2130268317151545E-023
  0.35000000000000003          7.5496644661261172E-023
  0.35300000000000004          1.1384557161259830E-022
  0.35600000000000004          1.3227068627278847E-022
  0.35900000000000004          1.1598363313354111E-022
  0.36200000000000004          5.5051159987840232E-023
  0.36500000000000005         -5.0579622990362738E-023
  0.36800000000000005         -1.8719759622220811E-022
  0.37100000000000005         -3.2616186819749440E-022
  0.37400000000000005         -4.2674274257241210E-022
  0.37700000000000006         -4.4352115459065467E-022
  0.38000000000000006         -3.3776711963904721E-022
  0.38300000000000006         -9.0899949817726364E-023
  0.38600000000000007          2.8302807925203152E-022
  0.38900000000000007          7.2957594913949620E-022
  0.39200000000000007          1.1544887072962137E-021
  0.39500000000000007          1.4350914762946920E-021
  0.39800000000000008          1.4428670993404869E-021
  0.40100000000000008          1.0748281254229229E-021
  0.40400000000000008          2.8835391281949936E-022
  0.40700000000000008         -8.6821327204058050E-022
  0.41000000000000009         -2.2379837079578914E-021
  0.41300000000000009         -3.5590382973983913E-021
  0.41600000000000009         -4.4941706224391385E-021
  0.41900000000000009         -4.6872375246595110E-021
  0.42200000000000010         -3.8403919891440937E-021
  0.42500000000000010         -1.8002364149904425E-021
  0.42800000000000010          1.3640798029859829E-021
  0.43100000000000011          5.3102421504722481E-021
  0.43400000000000000          9.4178275724640540E-021
  0.43700000000000000          1.2841799818770254E-020
  0.44000000000000000          1.4627955307335288E-020
  0.44300000000000000          1.3881808074663165E-020
  0.44600000000000001          9.9695689262029040E-021
  0.44900000000000001          2.7187672678025401E-021
  0.45200000000000001         -7.4212472425142695E-021
  0.45500000000000002         -1.9299596254289129E-020
  0.45800000000000002         -3.1098572111142523E-020
  0.46100000000000002         -4.0503265812407720E-020
  0.46400000000000002         -4.5005024529296798E-020
  0.46700000000000003         -4.2314465453176207E-020
  0.47000000000000003         -3.0834685527109036E-020
  0.47300000000000003         -1.0126039813132159E-020
  0.47600000000000003          1.8720652554471995E-020
  0.47900000000000004          5.2883936715088688E-020
  0.48200000000000004          8.7856807802371178E-020
  0.48500000000000004          1.1778261010554466E-019
  0.48800000000000004          1.3609104091547042E-019
  0.49100000000000005          1.3639934770387369E-019
  0.49400000000000005          1.1359467604146817E-019
  0.49700000000000005          6.4973798372779793E-020
  0.50000000000000000         -8.7225492710130143E-021
  0.50300000000000011         -1.0255869531142612E-019
  0.50600000000000001         -2.0710876245620017E-019
  0.50900000000000012         -3.0876468489584954E-019
  0.51200000000000001         -3.9074289892988677E-019
  0.51500000000000012         -4.3479971444235779E-019
  0.51800000000000002         -4.2357894717644778E-019
  0.52100000000000013         -3.4340800951392813E-019
  0.52400000000000002         -1.8724934710258163E-019
  0.52700000000000014          4.2563615062163122E-020
  0.53000000000000003          3.3224567497923745E-019
  0.53300000000000014          6.5557722131902963E-019
  0.53600000000000003          9.7442893403846142E-019
  0.53900000000000015          1.2410853275507560E-018
  0.54200000000000004          1.4024851798515837E-018
  0.54500000000000015          1.4062832183634543E-018
  0.54800000000000004          1.2083346422814927E-018
  0.55100000000000016          7.8095605172173914E-019
  0.55400000000000005          1.2100786208619462E-019
  0.55700000000000016         -7.4332285667394952E-019
  0.56000000000000005         -1.7482532837113717E-018
  0.56299999999999994         -2.7938707409655172E-018
  0.56600000000000006         -3.7482665234387844E-018
  0.56899999999999995         -4.4569788813703079E-018
  0.57200000000000006         -4.7577202615664599E-018
  0.57499999999999996         -4.4997882155611945E-018
  0.57800000000000007         -3.5667163520406001E-018
  0.58099999999999996         -1.9000972311425299E-018
  0.58400000000000007          4.7830011384313186E-019
  0.58699999999999997          3.4491900125555837E-018
  0.59000000000000008          6.7866136053298784E-018
  0.59299999999999997          1.0159906991843681E-017
  0.59600000000000009          1.3149207718948318E-017
  0.59899999999999998          1.5275650594005032E-017
  0.60200000000000009          1.6045914045591527E-017
  0.60500000000000020          1.5009162427359000E-017
  0.60800000000000010          1.1822158664928443E-017
  0.61100000000000021          6.3169137603800395E-018
  0.61400000000000010         -1.4367319865473416E-018
  0.61700000000000021         -1.1081880598232815E-017
  0.62000000000000011         -2.1947328463537776E-017
  0.62300000000000022         -3.3050785479713610E-017
  0.62600000000000011         -4.3138494975331860E-017
  0.62900000000000000         -5.0764807437859622E-017
  0.63200000000000012         -5.4412631830775237E-017
  0.63500000000000001         -5.2648929601242902E-017
  0.63800000000000012         -4.4306888094592061E-017
  0.64100000000000001         -2.8680165826470884E-017
  0.64400000000000013         -5.7106371187491333E-018
  0.64700000000000002          2.3852056934864960E-017
  0.65000000000000013          5.8343183554978740E-017
  0.65300000000000002          9.5150662399308383E-017
  0.65600000000000014          1.3077661618247974E-016
  0.65900000000000003          1.6100896537133755E-016
  0.66200000000000014          1.8120795505993594E-016
  0.66500000000000004          1.8670208865539867E-016
  0.66800000000000015          1.7327634403540035E-016
  0.67100000000000004          1.3772335982524363E-016
  0.67400000000000015          7.8411086994937774E-017
  0.67700000000000005         -4.1839249013900910E-018
  0.68000000000000016         -1.0704094913738675E-016
  0.68300000000000005         -2.2432608955659973E-016
  0.68600000000000017         -3.4734637125928102E-016
  0.68900000000000006         -4.6478254201753422E-016
  0.69200000000000017         -5.6323918562769111E-016
  0.69500000000000006         -6.2812106300769179E-016
  0.69800000000000018         -6.4481795061780713E-016
  0.70100000000000007         -6.0015396213008929E-016
  0.70400000000000018         -4.8400678276222056E-016
  0.70700000000000007         -2.9098058729344386E-016
  0.71000000000000019         -2.1985870644475736E-017
  0.71300000000000008          3.1445115677035997E-016
  0.71600000000000019          7.0132127158772545E-016
  0.71900000000000008          1.1128875408933387E-015
  0.72200000000000020          1.5152190974657551E-015
  0.72500000000000009          1.8675906989632900E-015
  0.72800000000000020          2.1248265752466911E-015
  0.73100000000000009          2.2405492432959210E-015
  0.73400000000000021          2.1712113525645361E-015
  0.73700000000000010          1.8807318096440567E-015
  0.74000000000000021          1.3454106620070321E-015
  0.74300000000000010          5.5873942766909469E-016
  0.74600000000000022         -4.6429331088938594E-016
  0.74900000000000011         -1.6839834914417399E-015
  0.75200000000000022         -3.0341864836189329E-015
  0.75500000000000012         -4.4225557462236493E-015
  0.75800000000000001         -5.7331913664240747E-015
  0.76100000000000012         -6.8317960637692455E-015
  0.76400000000000001         -7.5736066051805524E-015
  0.76700000000000013         -7.8136879610318101E-015
  0.77000000000000002         -7.4194361653459341E-015
  0.77300000000000013         -6.2845555878908499E-015
  0.77600000000000002         -4.3435279347946644E-015
  0.77900000000000014         -1.5856414041277534E-015
  0.78200000000000003          1.9327612145679465E-015
  0.78500000000000014          6.0792508518638497E-015
  0.78800000000000003          1.0640701211795996E-014
  0.79100000000000015          1.5324481374337047E-014
  0.79400000000000004          1.9766317800202132E-014
  0.79700000000000015          2.3545499790864897E-014
  0.80000000000000004          2.6207729769758390E-014
  0.80300000000000016          2.7295046638050740E-014
  0.80600000000000005          2.6381784037187283E-014
  0.80900000000000016          2.3115154893964171E-014
  0.81200000000000006          1.7257689992199181E-014
  0.81500000000000017          8.7287352914832825E-015
  0.81800000000000006         -2.3578529698702061E-015
  0.82100000000000017         -1.5664530358050073E-014
  0.82400000000000007         -3.0612111263632525E-014
  0.82700000000000018         -4.6377257111020556E-014
  0.83000000000000007         -6.1907507038224475E-014
  0.83300000000000018         -7.5956905642600724E-014
  0.83600000000000008         -8.7142920150250247E-014
  0.83900000000000019         -9.4023564718857895E-014
  0.84200000000000008         -9.5194085335505483E-014
  0.84500000000000020         -8.9397531864064201E-014
  0.84800000000000009         -7.5646315927414364E-014
  0.85100000000000020         -5.3345364021276799E-014
  0.85400000000000009         -2.2409706384793903E-014
  0.85700000000000021          1.6633688229987505E-014
  0.86000000000000010          6.2568028689178883E-014
  0.86300000000000021          1.1344594349604118E-013
  0.86600000000000010          1.6659088569521825E-013
  0.86900000000000022          2.1865145095206475E-013
  0.87200000000000011          2.6571039218166067E-013
  0.87500000000000022          3.0345581330969386E-013
  0.87800000000000011          3.2740447224067826E-013
  0.88100000000000001          3.3318033182618511E-013
  0.88400000000000012          3.1683363568801033E-013
  0.88700000000000001          2.7518353497477896E-013
  0.89000000000000012          2.0617201120445509E-013
  0.89300000000000002          1.0920450621609537E-013
  0.89600000000000013         -1.4552647758667331E-014
  0.89900000000000002         -1.6193384810887468E-013
  0.90200000000000014         -3.2762888917403206E-013
  0.90500000000000003         -5.0415114059130004E-013
  0.90800000000000014         -6.8193764151062394E-013
  0.91100000000000003         -8.4960626652850601E-013
  0.91400000000000015         -9.9435380136156016E-013
  0.91700000000000004         -1.1025302674591876E-012
  0.92000000000000015         -1.1603394232409566E-012
  0.92300000000000004         -1.1546734816573636E-012
  0.92600000000000016         -1.0740378888503602E-012
  0.92900000000000005         -9.0951777101599593E-013
  0.93200000000000016         -6.5575263132820170E-013
  0.93500000000000005         -3.1183557080140840E-013
  0.93800000000000017          1.1789577102035765E-013
  0.94100000000000006          6.2327048575366310E-013
  0.94400000000000017          1.1879570691819059E-012
  0.94700000000000006          1.7894264032522443E-012
  0.95000000000000018          2.3992884105337209E-012
  0.95300000000000007          2.9840222167998186E-012
  0.95600000000000018          3.5061230956570237E-012
  0.95900000000000007          3.9256109178348517E-012
  0.96200000000000019          4.2019806866090108E-012
  0.96500000000000008          4.2964194340292233E-012
  0.96800000000000019          4.1743215236153429E-012
  0.97100000000000009          3.8078911087084348E-012
  0.97400000000000020          3.1788330627049068E-012
  0.97700000000000009          2.2808783524831911E-012
  0.98000000000000020          1.1221096159806219E-012
  0.98300000000000010         -2.7317634984083454E-013
  0.98600000000000021         -1.8631595171743912E-012
  0.98900000000000010         -3.5878583707986272E-012
  0.99200000000000021         -5.3693129950743293E-012
  0.99500000000000011         -7.1127455857354378E-012
  0.99800000000000022         -8.7086559195292151E-012
   1.0010000000000001         -1.0035801234469932E-011
   1.0040000000000002         -1.0965414243304777E-011
   1.0070000000000001         -1.1366087097705201E-011
   1.0100000000000000         -1.1109490108642293E-011
   1.0130000000000001         -1.0076802763494886E-011
   1.0160000000000000         -8.1654481250267455E-012
   1.0190000000000001         -5.2960017486646343E-012
   1.0220000000000000         -1.4191700130251097E-012
   1.0250000000000001          3.4775371221713780E-012
   1.0280000000000000          9.3637097380494468E-012
   1.0310000000000001          1.6161103773721040E-011
   1.0340000000000000          2.3739095080185930E-011
   1.0370000000000001          3.1911797917324274E-011
   1.0400000000000000          4.0436401750656080E-011
   1.0430000000000001          4.9011723888737752E-011
   1.0460000000000000          5.7279304385704446E-011
   1.0490000000000002          6.4823988142570101E-011
   1.0520000000000000          7.1176657697233804E-011
   1.0550000000000002          7.5815049371981358E-011
   1.0580000000000001          7.8166195712444387E-011
   1.0610000000000002          7.7606313001475343E-011
   1.0640000000000001          7.3459563080364277E-011
   1.0670000000000002          6.4995823550780545E-011
   1.0700000000000001          5.1418314856079212E-011
   1.0730000000000002          3.1857916137867685E-011
   1.0760000000000001          5.3568453698876945E-012
   1.0790000000000002         -2.9162522112494212E-011
   1.0820000000000001         -7.2918706715278128E-011
   1.0850000000000002         -1.2731182052725753E-010
   1.0880000000000001         -1.9397768797165887E-010
   1.0910000000000002         -2.7483402624830779E-010
   1.0940000000000001         -3.7215430932169584E-010
   1.0970000000000002         -4.8864383918381895E-010
