 -0.39999999999999997          0.0000000000000000     
 -0.39699999999999996          0.0000000000000000     
 -0.39399999999999996          0.0000000000000000     
 -0.39099999999999996          0.0000000000000000     
 -0.38799999999999996          0.0000000000000000     
 -0.38499999999999995          0.0000000000000000     
 -0.38199999999999995          0.0000000000000000     
 -0.37899999999999995          0.0000000000000000     
 -0.37599999999999995          0.0000000000000000     
 -0.37299999999999994          0.0000000000000000     
 -0.37000000000000000          0.0000000000000000     
 -0.36699999999999999          0.0000000000000000     
 -0.36399999999999999          0.0000000000000000     
 -0.36099999999999999          0.0000000000000000     
 -0.35799999999999998          0.0000000000000000     
 -0.35499999999999998          0.0000000000000000     
 -0.35199999999999998          0.0000000000000000     
 -0.34899999999999998          0.0000000000000000     
 -0.34599999999999997          0.0000000000000000     
 -0.34299999999999997          0.0000000000000000     
 -0.33999999999999997          0.0000000000000000     
 -0.33699999999999997          0.0000000000000000     
 -0.33399999999999996          0.0000000000000000     
 -0.33099999999999996          0.0000000000000000     
 -0.32799999999999996          0.0000000000000000     
 -0.32499999999999996          0.0000000000000000     
 -0.32199999999999995          0.0000000000000000     
 -0.31899999999999995          0.0000000000000000     
 -0.31599999999999995          0.0000000000000000     
 -0.31299999999999994          0.0000000000000000     
 -0.30999999999999994          0.0000000000000000     
 -0.30699999999999994          0.0000000000000000     
 -0.30399999999999994          0.0000000000000000     
 -0.30099999999999993          0.0000000000000000     
 -0.29799999999999993          0.0000000000000000     
 -0.29499999999999998          0.0000000000000000     
 -0.29199999999999998          0.0000000000000000     
 -0.28899999999999998          0.0000000000000000     
 -0.28599999999999998          0.0000000000000000     
 -0.28299999999999997          0.0000000000000000     
 -0.27999999999999997          0.0000000000000000     
 -0.27699999999999997          0.0000000000000000     
 -0.27399999999999997          0.0000000000000000     
 -0.27099999999999996          0.0000000000000000     
 -0.26799999999999996          0.0000000000000000     
 -0.26499999999999996          0.0000000000000000     
 -0.26199999999999996          0.0000000000000000     
 -0.25899999999999995          0.0000000000000000     
 -0.25599999999999995          0.0000000000000000     
 -0.25300000000000000          0.0000000000000000     
 -0.24999999999999997          0.0000000000000000     
 -0.24699999999999997          0.0000000000000000     
 -0.24399999999999997          0.0000000000000000     
 -0.24099999999999996          0.0000000000000000     
 -0.23799999999999996          0.0000000000000000     
 -0.23499999999999996          0.0000000000000000     
 -0.23199999999999996          0.0000000000000000     
 -0.22899999999999995          0.0000000000000000     
 -0.22599999999999995          0.0000000000000000     
 -0.22299999999999998          0.0000000000000000     
 -0.21999999999999997          0.0000000000000000     
 -0.21699999999999997          0.0000000000000000     
 -0.21399999999999997          0.0000000000000000     
 -0.21099999999999997          0.0000000000000000     
 -0.20799999999999996          0.0000000000000000     
 -0.20499999999999996          0.0000000000000000     
 -0.20199999999999996          0.0000000000000000     
 -0.19899999999999995          0.0000000000000000     
 -0.19599999999999995          0.0000000000000000     
 -0.19299999999999995          0.0000000000000000     
 -0.18999999999999997          0.0000000000000000     
 -0.18699999999999997          0.0000000000000000     
 -0.18399999999999997          0.0000000000000000     
 -0.18099999999999997          0.0000000000000000     
 -0.17799999999999996          0.0000000000000000     
 -0.17499999999999996          0.0000000000000000     
 -0.17199999999999996          0.0000000000000000     
 -0.16899999999999996          0.0000000000000000     
 -0.16599999999999995          0.0000000000000000     
 -0.16299999999999995          0.0000000000000000     
 -0.15999999999999998          0.0000000000000000     
 -0.15699999999999997          0.0000000000000000     
 -0.15399999999999997          0.0000000000000000     
 -0.15099999999999997          0.0000000000000000     
 -0.14799999999999996          0.0000000000000000     
 -0.14499999999999996          0.0000000000000000     
 -0.14199999999999996          0.0000000000000000     
 -0.13899999999999996          0.0000000000000000     
 -0.13599999999999995          0.0000000000000000     
 -0.13299999999999995          0.0000000000000000     
 -0.12999999999999995          0.0000000000000000     
 -0.12699999999999995          0.0000000000000000     
 -0.12399999999999994          0.0000000000000000     
 -0.12099999999999994          0.0000000000000000     
 -0.11799999999999994          0.0000000000000000     
 -0.11499999999999994          0.0000000000000000     
 -0.11199999999999993          0.0000000000000000     
 -0.10899999999999999          0.0000000000000000     
 -0.10599999999999998          0.0000000000000000     
 -0.10299999999999998          0.0000000000000000     
  -9.9999999999999978E-002     0.0000000000000000     
  -9.6999999999999975E-002     0.0000000000000000     
  -9.3999999999999972E-002     0.0000000000000000     
  -9.0999999999999970E-002     0.0000000000000000     
  -8.7999999999999967E-002     0.0000000000000000     
  -8.4999999999999964E-002     0.0000000000000000     
  -8.1999999999999962E-002     0.0000000000000000     
  -7.8999999999999959E-002     0.0000000000000000     
  -7.5999999999999956E-002     0.0000000000000000     
  -7.2999999999999954E-002     0.0000000000000000     
  -6.9999999999999951E-002     0.0000000000000000     
  -6.6999999999999948E-002     0.0000000000000000     
  -6.3999999999999946E-002     0.0000000000000000     
  -6.0999999999999943E-002     0.0000000000000000     
  -5.7999999999999940E-002     0.0000000000000000     
  -5.4999999999999938E-002     0.0000000000000000     
  -5.1999999999999935E-002     0.0000000000000000     
  -4.8999999999999932E-002     0.0000000000000000     
  -4.5999999999999985E-002     0.0000000000000000     
  -4.2999999999999983E-002     0.0000000000000000     
  -3.9999999999999980E-002     0.0000000000000000     
  -3.6999999999999977E-002     0.0000000000000000     
  -3.3999999999999975E-002     0.0000000000000000     
  -3.0999999999999972E-002     0.0000000000000000     
  -2.7999999999999969E-002     0.0000000000000000     
  -2.4999999999999967E-002     0.0000000000000000     
  -2.1999999999999964E-002     0.0000000000000000     
  -1.8999999999999961E-002     0.0000000000000000     
  -1.5999999999999959E-002     0.0000000000000000     
  -1.2999999999999956E-002     0.0000000000000000     
  -9.9999999999999534E-003     0.0000000000000000     
  -6.9999999999999507E-003     0.0000000000000000     
  -3.9999999999999480E-003     0.0000000000000000     
  -9.9999999999994538E-004     0.0000000000000000     
   2.0000000000000573E-003     0.0000000000000000     
   5.0000000000000600E-003     0.0000000000000000     
   8.0000000000000626E-003     0.0000000000000000     
   1.1000000000000065E-002     0.0000000000000000     
   1.4000000000000068E-002     0.0000000000000000     
   1.7000000000000015E-002     0.0000000000000000     
   2.0000000000000018E-002     0.0000000000000000     
   2.3000000000000020E-002     0.0000000000000000     
   2.6000000000000023E-002     0.0000000000000000     
   2.9000000000000026E-002     0.0000000000000000     
   3.2000000000000028E-002     0.0000000000000000     
   3.5000000000000031E-002     0.0000000000000000     
   3.8000000000000034E-002     0.0000000000000000     
   4.1000000000000036E-002     0.0000000000000000     
   4.4000000000000039E-002     0.0000000000000000     
   4.7000000000000042E-002     0.0000000000000000     
   5.0000000000000044E-002     0.0000000000000000     
   5.3000000000000047E-002     0.0000000000000000     
   5.6000000000000050E-002     0.0000000000000000     
   5.9000000000000052E-002     0.0000000000000000     
   6.2000000000000055E-002     8.7852221460585615E-042
   6.5000000000000058E-002    -8.6425053620890478E-042
   6.8000000000000060E-002    -3.8791492215380202E-041
   7.1000000000000063E-002    -3.2503723555819867E-041
   7.4000000000000066E-002     1.0821112138295926E-040
   7.7000000000000068E-002     1.2523857908095221E-040
   8.0000000000000016E-002    -3.0684694946073507E-040
   8.3000000000000018E-002    -1.7667226827358888E-039
   8.6000000000000021E-002    -1.4205884267211820E-040
   8.9000000000000024E-002     6.1948775793389092E-041
   9.2000000000000026E-002    -2.4953891400130602E-040
   9.5000000000000029E-002    -1.2911132701258395E-038
   9.8000000000000032E-002    -1.2905292448999878E-038
  0.10100000000000003          7.1725697006997279E-039
  0.10400000000000004          3.5708412753832700E-038
  0.10700000000000004          5.4494943108741944E-038
  0.11000000000000004          2.0906794142058619E-038
  0.11300000000000004         -8.8989491305131654E-038
  0.11600000000000005         -2.1492777987278774E-037
  0.11900000000000005         -2.0423388391287627E-037
  0.12200000000000005          1.0203441127535119E-037
  0.12500000000000006          6.5973826441240755E-037
  0.12800000000000006          1.0336973434598444E-036
  0.13100000000000006          5.0078746560158839E-037
  0.13400000000000006         -1.3510311838557883E-036
  0.13700000000000007         -3.7252274953728157E-036
  0.14000000000000007         -4.2165415334654355E-036
  0.14300000000000007          3.2929245551749417E-038
  0.14600000000000007          9.3148172561878500E-036
  0.14900000000000008          1.8093449950979925E-035
  0.15200000000000008          1.5149150571229462E-035
  0.15500000000000008         -9.3852816937113547E-036
  0.15800000000000008         -5.0979306543422449E-035
  0.16100000000000009         -8.0341326043541520E-035
  0.16400000000000009         -5.0258570048532852E-035
  0.16700000000000009          7.0382077857445202E-035
  0.17000000000000010          2.4532422018828938E-034
  0.17300000000000010          3.4073599673887380E-034
  0.17600000000000010          1.6904479216842304E-034
  0.17899999999999999         -3.6717090749470245E-034
  0.18200000000000000         -1.0838272725313519E-033
  0.18500000000000000         -1.4260622867608470E-033
  0.18800000000000000         -6.6572699602448674E-034
  0.19100000000000000          1.5440542976075821E-033
  0.19400000000000001          4.4683713662076267E-033
  0.19700000000000001          5.9784379931305376E-033
  0.20000000000000001          3.2628157290337977E-033
  0.20300000000000001         -5.1968813455427931E-033
  0.20600000000000002         -1.7075789058026931E-032
  0.20900000000000002         -2.4846835889144489E-032
  0.21200000000000002         -1.7788639138300591E-032
  0.21500000000000002          1.1568949344770466E-032
  0.21800000000000003          5.8330129840792797E-032
  0.22100000000000003          9.8771320734524485E-032
  0.22400000000000003          9.3828790766184823E-032
  0.22700000000000004          7.5734363350639037E-033
  0.23000000000000004         -1.6202942895867867E-031
  0.23300000000000004         -3.5402621772856347E-031
  0.23600000000000004         -4.3994874955869842E-031
  0.23900000000000005         -2.6546581949232185E-031
  0.24200000000000005          2.5759404871320502E-031
  0.24500000000000005          1.0368277572798816E-030
  0.24800000000000005          1.7252424723816320E-030
  0.25100000000000006          1.7665798135046993E-030
  0.25400000000000006          6.1401637078371534E-031
  0.25700000000000006         -1.8995892755026268E-030
  0.26000000000000006         -5.1728431279112107E-030
  0.26300000000000007         -7.6608433110920735E-030
  0.26600000000000007         -7.1671779525920914E-030
  0.26900000000000007         -1.7374502219133446E-030
  0.27200000000000008          8.9825266275536206E-030
  0.27500000000000008          2.2418946171954239E-029
  0.27800000000000008          3.2560027351355845E-029
  0.28100000000000008          3.1075957212293596E-029
  0.28400000000000009          1.0472236029528874E-029
  0.28700000000000009         -3.1186496800805987E-029
  0.29000000000000009         -8.5562000010535245E-029
  0.29300000000000009         -1.3184036610441752E-028
  0.29600000000000010         -1.3969653340218321E-028
  0.29900000000000010         -7.8972304226040687E-029
  0.30200000000000010          6.4863523523125270E-029
  0.30499999999999999          2.7376185363644204E-028
  0.30800000000000000          4.8601829050874695E-028
  0.31100000000000000          5.9967799210665565E-028
  0.31400000000000000          4.9690849671227345E-028
  0.31700000000000000          8.9674345744272770E-029
  0.32000000000000001         -6.2236644388217784E-028
  0.32300000000000001         -1.5009803829150442E-027
  0.32600000000000001         -2.2515732549255146E-027
  0.32900000000000001         -2.4636800982550719E-027
  0.33200000000000002         -1.7229779993923590E-027
  0.33500000000000002          2.1509443545270437E-028
  0.33800000000000002          3.2302171998637559E-027
  0.34100000000000003          6.6889728755810430E-027
  0.34400000000000003          9.4264371280163569E-027
  0.34700000000000003          9.9292130127608699E-027
  0.35000000000000003          6.7476044933801171E-027
  0.35300000000000004         -9.0975608326122154E-028
  0.35600000000000004         -1.2535881282277014E-026
  0.35900000000000004         -2.5856812620691110E-026
  0.36200000000000004         -3.6787143868678141E-026
  0.36500000000000005         -4.0023243878036840E-026
  0.36800000000000005         -3.0355680799740839E-026
  0.37100000000000005         -4.5664029670372869E-027
  0.37400000000000005          3.6485409811950387E-026
  0.37700000000000006          8.6219263965207426E-026
  0.38000000000000006          1.3188207064019153E-025
  0.38300000000000006          1.5596018870242828E-025
  0.38600000000000007          1.3979426835351873E-025
  0.38900000000000007          6.9162625435438538E-026
  0.39200000000000007         -5.9124923392825005E-026
  0.39500000000000007         -2.3128745587112320E-025
  0.39800000000000008         -4.1341196167839474E-025
  0.40100000000000008         -5.5318101023811966E-025
  0.40400000000000008         -5.8793996322975198E-025
  0.40700000000000008         -4.5921476664269266E-025
  0.41000000000000009         -1.3192705375327005E-025
  0.41300000000000009          3.8548224083855934E-025
  0.41600000000000009          1.0254878825451165E-024
  0.41900000000000009          1.6566604262405415E-024
  0.42200000000000010          2.0950211769626685E-024
  0.42500000000000010          2.1344603985439553E-024
  0.42800000000000010          1.5949229482225193E-024
  0.43100000000000011          3.8176663822158869E-025
  0.43400000000000000         -1.4555587188429513E-024
  0.43700000000000000         -3.6813179954159993E-024
  0.44000000000000000         -5.8646437621401471E-024
  0.44300000000000000         -7.4180020121897916E-024
  0.44600000000000001         -7.6895311900492251E-024
  0.44900000000000001         -6.1044192769219945E-024
  0.45200000000000001         -2.3367140583644614E-024
  0.45500000000000002          3.5204793417970009E-024
  0.45800000000000002          1.0828304558166578E-023
  0.46100000000000002          1.8363569090088597E-023
  0.46400000000000002          2.4405875555181118E-023
  0.46700000000000003          2.6970337420681919E-023
  0.47000000000000003          2.4178059376239235E-023
  0.47300000000000003          1.4722904617681675E-023
  0.47600000000000003         -1.6408830727918947E-024
  0.47900000000000004         -2.3692350068453931E-023
  0.48200000000000004         -4.8532667290999322E-023
  0.48500000000000004         -7.1673255109421282E-023
  0.48800000000000004         -8.7492537568526713E-023
  0.49100000000000005         -9.0072503523048359E-023
  0.49400000000000005         -7.4349914449825437E-023
  0.49700000000000005         -3.7434561011892015E-023
  0.50000000000000000          2.0126398447298117E-023
  0.50300000000000011          9.3407323437917048E-023
  0.50600000000000001          1.7276206953246671E-022
  0.50900000000000012          2.4431181118810874E-022
  0.51200000000000001          2.9139337031465859E-022
  0.51500000000000012          2.9694908622046491E-022
  0.51800000000000002          2.4665893158920367E-022
  0.52100000000000013          1.3242827489783984E-022
  0.52400000000000002         -4.4315383643211846E-023
  0.52700000000000014         -2.7016079102901738E-022
  0.53000000000000003         -5.1874133111307483E-022
  0.53300000000000014         -7.5180209654105510E-022
  0.53600000000000003         -9.2263541534726013E-022
  0.53900000000000015         -9.8188932807849189E-022
  0.54200000000000004         -8.8535828532349578E-022
  0.54500000000000015         -6.0294444317286532E-022
  0.54800000000000004         -1.2760362930963041E-022
  0.55100000000000016          5.1718960192850469E-022
  0.55400000000000005          1.2730130583690816E-021
  0.55700000000000016          2.0465600547851172E-021
  0.56000000000000005          2.7152667732654111E-021
  0.56299999999999994          3.1389980019014305E-021
  0.56600000000000006          3.1774633209735299E-021
  0.56899999999999995          2.7121223939765545E-021
  0.57200000000000006          1.6703748953565346E-021
  0.57499999999999996          4.8999562483953301E-023
  0.57800000000000007         -2.0667901066068343E-021
  0.58099999999999996         -4.4925406063541368E-021
  0.58400000000000007         -6.9455881292982831E-021
  0.58699999999999997         -9.0606974652538120E-021
  0.59000000000000008         -1.0421675659952950E-020
  0.59299999999999997         -1.0608481454178126E-020
  0.59600000000000009         -9.2570353824503297E-021
  0.59899999999999998         -6.1265523255601608E-021
  0.60200000000000009         -1.1669352801517967E-021
  0.60500000000000020          5.4230702975970966E-021
  0.60800000000000010          1.3157266582208868E-020
  0.61100000000000021          2.1253148313164592E-020
  0.61400000000000010          2.8661556244941039E-020
  0.61700000000000021          3.4140512651418626E-020
  0.62000000000000011          3.6374474793749611E-020
  0.62300000000000022          3.4134651364263072E-020
  0.62600000000000011          2.6469231446822009E-020
  0.62900000000000000          1.2905856729309283E-020
  0.63200000000000012         -6.3571403410196816E-021
  0.63500000000000001         -3.0298955235044406E-020
  0.63800000000000012         -5.6993686668562323E-020
  0.64100000000000001         -8.3625000468045232E-020
  0.64400000000000013         -1.0662055928956920E-019
  0.64700000000000002         -1.2191919636698255E-019
  0.65000000000000013         -1.2536939586847256E-019
  0.65300000000000002         -1.1324127508836742E-019
  0.65600000000000014         -8.2815343891594587E-020
  0.65900000000000003         -3.2992968130960377E-020
  0.66200000000000014          3.5142352140648848E-020
  0.66500000000000004          1.1789487220649828E-019
  0.66800000000000015          2.0874308515144897E-019
  0.67100000000000004          2.9842135236426553E-019
  0.67400000000000015          3.7535930664969011E-019
  0.67700000000000005          4.2651182077182165E-019
  0.68000000000000016          4.3857479472139969E-019
  0.68300000000000005          3.9953347110580666E-019
  0.68600000000000017          3.0044019890576387E-019
  0.68900000000000006          1.3726567982647238E-019
  0.69200000000000017         -8.7375437761319482E-020
  0.69500000000000006         -3.6285606639179923E-019
  0.69800000000000018         -6.6976931928530864E-019
  0.70100000000000007         -9.7999130042615595E-019
  0.70400000000000018         -1.2577671529287930E-018
  0.70700000000000007         -1.4619355744081947E-018
  0.71000000000000019         -1.5493084896399259E-018
  0.71300000000000008         -1.4791018854531625E-018
  0.71600000000000019         -1.2181635547968129E-018
  0.71900000000000008         -7.4660827681986153E-019
  0.72200000000000020         -6.3330746713876922E-020
  0.72500000000000009          8.0923803974530709E-019
  0.72800000000000020          1.8218259439777010E-018
  0.73100000000000009          2.8971663743126544E-018
  0.73400000000000021          3.9316186037356437E-018
  0.73700000000000010          4.8000301388850882E-018
  0.74000000000000021          5.3640797537458945E-018
  0.74300000000000010          5.4840038041812307E-018
  0.74600000000000022          5.0332574586449770E-018
  0.74900000000000011          3.9152342282037089E-018
  0.75200000000000022          2.0807736814898823E-018
  0.75500000000000012         -4.5519573840619703E-019
  0.75800000000000001         -3.5998048572994139E-018
  0.76100000000000012         -7.1732179493773013E-018
  0.76400000000000001         -1.0906516387705938E-017
  0.76700000000000013         -1.4448220813206579E-017
  0.77000000000000002         -1.7380761777814953E-017
  0.77300000000000013         -1.9247510031831024E-017
  0.77600000000000002         -1.9590001312615194E-017
  0.77900000000000014         -1.7993931746626830E-017
  0.78200000000000003         -1.4141325906722344E-017
  0.78500000000000014         -7.8651019119566399E-018
  0.78800000000000003          7.9882869684759853E-019
  0.79100000000000015          1.1567541784837095E-017
  0.79400000000000004          2.3881264351052586E-017
  0.79700000000000015          3.6893744061344095E-017
  0.80000000000000004          4.9488266861996166E-017
  0.80300000000000016          6.0323255838891233E-017
  0.80600000000000005          6.7909939872599767E-017
  0.80900000000000016          7.0721378239793921E-017
  0.81200000000000006          6.7329653815724010E-017
  0.81500000000000017          5.6564443243679380E-017
  0.81800000000000006          3.7682696272797641E-017
  0.82100000000000017          1.0536282184265040E-017
  0.82400000000000007         -2.4278600710881046E-017
  0.82700000000000018         -6.5307702901192312E-017
  0.83000000000000007         -1.1017894056258132E-016
  0.83300000000000018         -1.5561335249570989E-016
  0.83600000000000008         -1.9752148348420676E-016
  0.83900000000000019         -2.3119394947728804E-016
  0.84200000000000008         -2.5158982374309534E-016
  0.84500000000000020         -2.5371784389930465E-016
  0.84800000000000009         -2.3309587677551452E-016
  0.85100000000000020         -1.8626518317784838E-016
  0.85400000000000009         -1.1132528905913752E-016
  0.85700000000000021         -8.4473402164771437E-018
  0.86000000000000010          1.1968284759062792E-016
  0.86300000000000021          2.6754630622322996E-016
  0.86600000000000010          4.2664840992036245E-016
  0.86900000000000022          5.8560368596227286E-016
  0.87200000000000011          7.3048578796431321E-016
  0.87500000000000022          8.4546857109443345E-016
  0.87800000000000011          9.1376439748953268E-016
  0.88100000000000001          9.1884227007177741E-016
  0.88400000000000012          8.4588003601689303E-016
  0.88700000000000001          6.8338002205770499E-016
  0.89000000000000012          4.2484588315212941E-016
  0.89300000000000002          7.0396572882097890E-017
  0.89600000000000013         -3.7182913896931470E-016
  0.89900000000000002         -8.8463184546914111E-016
  0.90200000000000014         -1.4412337239028736E-015
  0.90500000000000003         -2.0054329215030390E-015
  0.90800000000000014         -2.5325443410400121E-015
  0.91100000000000003         -2.9712199862877024E-015
  0.91400000000000015         -3.2661715760463274E-015
  0.91700000000000004         -3.3617593926424775E-015
  0.92000000000000015         -3.2063418950307802E-015
  0.92300000000000004         -2.7571953513012312E-015
  0.92600000000000016         -1.9857241285715842E-015
  0.92900000000000005         -8.8263063281027023E-016
  0.93200000000000016          5.3737432546760786E-016
  0.93500000000000005          2.2317677548812117E-015
  0.93800000000000017          4.1277703782187682E-015
  0.94100000000000006          6.1217371038201754E-015
  0.94400000000000017          8.0807517264851647E-015
  0.94700000000000006          9.8467554589622984E-015
  0.95000000000000018          1.1243364497017451E-014
  0.95300000000000007          1.2085411148354168E-014
  0.95600000000000018          1.2190984888522246E-014
  0.95900000000000007          1.1395607860519815E-014
  0.96200000000000019          9.5678732862830452E-015
  0.96500000000000008          6.6257055438466106E-015
  0.96800000000000019          2.5521940279194253E-015
  0.97100000000000009         -2.5902535589135334E-015
  0.97400000000000020         -8.6487328212709755E-015
  0.97700000000000009         -1.5372991912036430E-014
  0.98000000000000020         -2.2414198321049650E-014
  0.98300000000000010         -2.9330458457032876E-014
  0.98600000000000021         -3.5599928726351922E-014
  0.98900000000000010         -4.0641969052802837E-014
  0.99200000000000021         -4.3846437315312634E-014
  0.99500000000000011         -4.4610425781139261E-014
  0.99800000000000022         -4.2381461486768755E-014
   1.0010000000000001         -3.6705227873880247E-014
   1.0040000000000002         -2.7275495089331324E-014
   1.0070000000000001         -1.3983244738133183E-014
   1.0100000000000000          3.0384206329051925E-015
   1.0130000000000001          2.3377304722696147E-014
   1.0160000000000000          4.6317022942713664E-014
   1.0190000000000001          7.0827359449303808E-014
   1.0220000000000000          9.5573546761307441E-014
   1.0250000000000001          1.1894712249908802E-013
   1.0280000000000000          1.3912002413327722E-013
   1.0310000000000001          1.5412264570545405E-013
   1.0340000000000000          1.6194481824443219E-013
   1.0370000000000001          1.6065727619636041E-013
   1.0400000000000000          1.4854946418244897E-013
   1.0430000000000001          1.2427767400898474E-013
   1.0460000000000000          8.7016292658245106E-014
   1.0490000000000002          3.6603021042411480E-014
   1.0520000000000000         -2.6331879518311373E-014
   1.0550000000000002         -1.0026231679039231E-013
   1.0580000000000001         -1.8270067934662284E-013
   1.0610000000000002         -2.7017883878957463E-013
   1.0640000000000001         -3.5828535608823225E-013
   1.0670000000000002         -4.4176495505860371E-013
   1.0700000000000001         -5.1468554926509239E-013
   1.0730000000000002         -5.7067278350757645E-013
   1.0760000000000001         -6.0320948620074353E-013
   1.0790000000000002         -6.0599311373446660E-013
   1.0820000000000001         -5.7333915913668230E-013
   1.0850000000000002         -5.0061443903595188E-013
   1.0880000000000001         -3.8468066188693776E-013
   1.0910000000000002         -2.2432397817650847E-013
   1.0940000000000001         -2.0644083107258455E-014
   1.0970000000000002          2.2262609308991795E-013
