 -0.39999999999999997          0.0000000000000000     
 -0.39699999999999996          0.0000000000000000     
 -0.39399999999999996          0.0000000000000000     
 -0.39099999999999996          0.0000000000000000     
 -0.38799999999999996          0.0000000000000000     
 -0.38499999999999995          0.0000000000000000     
 -0.38199999999999995          0.0000000000000000     
 -0.37899999999999995          0.0000000000000000     
 -0.37599999999999995          0.0000000000000000     
 -0.37299999999999994          0.0000000000000000     
 -0.37000000000000000          0.0000000000000000     
 -0.36699999999999999          0.0000000000000000     
 -0.36399999999999999          0.0000000000000000     
 -0.36099999999999999          0.0000000000000000     
 -0.35799999999999998          0.0000000000000000     
 -0.35499999999999998          0.0000000000000000     
 -0.35199999999999998          0.0000000000000000     
 -0.34899999999999998          0.0000000000000000     
 -0.34599999999999997          0.0000000000000000     
 -0.34299999999999997          0.0000000000000000     
 -0.33999999999999997          0.0000000000000000     
 -0.33699999999999997          0.0000000000000000     
 -0.33399999999999996          0.0000000000000000     
 -0.33099999999999996          0.0000000000000000     
 -0.32799999999999996          0.0000000000000000     
 -0.32499999999999996          0.0000000000000000     
 -0.32199999999999995          0.0000000000000000     
 -0.31899999999999995          0.0000000000000000     
 -0.31599999999999995          0.0000000000000000     
 -0.31299999999999994          0.0000000000000000     
 -0.30999999999999994          0.0000000000000000     
 -0.30699999999999994          0.0000000000000000     
 -0.30399999999999994          0.0000000000000000     
 -0.30099999999999993          0.0000000000000000     
 -0.29799999999999993          0.0000000000000000     
 -0.29499999999999998          0.0000000000000000     
 -0.29199999999999998          0.0000000000000000     
 -0.28899999999999998          0.0000000000000000     
 -0.28599999999999998          0.0000000000000000     
 -0.28299999999999997          0.0000000000000000     
 -0.27999999999999997          0.0000000000000000     
 -0.27699999999999997          0.0000000000000000     
 -0.27399999999999997          0.0000000000000000     
 -0.27099999999999996          0.0000000000000000     
 -0.26799999999999996          0.0000000000000000     
 -0.26499999999999996          0.0000000000000000     
 -0.26199999999999996          0.0000000000000000     
 -0.25899999999999995          0.0000000000000000     
 -0.25599999999999995          0.0000000000000000     
 -0.25300000000000000          0.0000000000000000     
 -0.24999999999999997          0.0000000000000000     
 -0.24699999999999997          0.0000000000000000     
 -0.24399999999999997          0.0000000000000000     
 -0.24099999999999996          0.0000000000000000     
 -0.23799999999999996          0.0000000000000000     
 -0.23499999999999996          0.0000000000000000     
 -0.23199999999999996          0.0000000000000000     
 -0.22899999999999995          0.0000000000000000     
 -0.22599999999999995          0.0000000000000000     
 -0.22299999999999998          0.0000000000000000     
 -0.21999999999999997          0.0000000000000000     
 -0.21699999999999997          0.0000000000000000     
 -0.21399999999999997          0.0000000000000000     
 -0.21099999999999997          0.0000000000000000     
 -0.20799999999999996          0.0000000000000000     
 -0.20499999999999996          0.0000000000000000     
 -0.20199999999999996          0.0000000000000000     
 -0.19899999999999995          0.0000000000000000     
 -0.19599999999999995          0.0000000000000000     
 -0.19299999999999995          0.0000000000000000     
 -0.18999999999999997          0.0000000000000000     
 -0.18699999999999997          0.0000000000000000     
 -0.18399999999999997          0.0000000000000000     
 -0.18099999999999997          0.0000000000000000     
 -0.17799999999999996          0.0000000000000000     
 -0.17499999999999996          0.0000000000000000     
 -0.17199999999999996          0.0000000000000000     
 -0.16899999999999996          0.0000000000000000     
 -0.16599999999999995          0.0000000000000000     
 -0.16299999999999995          0.0000000000000000     
 -0.15999999999999998          0.0000000000000000     
 -0.15699999999999997          0.0000000000000000     
 -0.15399999999999997          0.0000000000000000     
 -0.15099999999999997          0.0000000000000000     
 -0.14799999999999996          0.0000000000000000     
 -0.14499999999999996          0.0000000000000000     
 -0.14199999999999996          0.0000000000000000     
 -0.13899999999999996          0.0000000000000000     
 -0.13599999999999995          0.0000000000000000     
 -0.13299999999999995          0.0000000000000000     
 -0.12999999999999995          0.0000000000000000     
 -0.12699999999999995          0.0000000000000000     
 -0.12399999999999994          0.0000000000000000     
 -0.12099999999999994          0.0000000000000000     
 -0.11799999999999994          0.0000000000000000     
 -0.11499999999999994          0.0000000000000000     
 -0.11199999999999993          0.0000000000000000     
 -0.10899999999999999          0.0000000000000000     
 -0.10599999999999998          0.0000000000000000     
 -0.10299999999999998          0.0000000000000000     
  -9.9999999999999978E-002     0.0000000000000000     
  -9.6999999999999975E-002     0.0000000000000000     
  -9.3999999999999972E-002     0.0000000000000000     
  -9.0999999999999970E-002     0.0000000000000000     
  -8.7999999999999967E-002     0.0000000000000000     
  -8.4999999999999964E-002     0.0000000000000000     
  -8.1999999999999962E-002     0.0000000000000000     
  -7.8999999999999959E-002     0.0000000000000000     
  -7.5999999999999956E-002     0.0000000000000000     
  -7.2999999999999954E-002     0.0000000000000000     
  -6.9999999999999951E-002     0.0000000000000000     
  -6.6999999999999948E-002     0.0000000000000000     
  -6.3999999999999946E-002     0.0000000000000000     
  -6.0999999999999943E-002     0.0000000000000000     
  -5.7999999999999940E-002     0.0000000000000000     
  -5.4999999999999938E-002     0.0000000000000000     
  -5.1999999999999935E-002     0.0000000000000000     
  -4.8999999999999932E-002     0.0000000000000000     
  -4.5999999999999985E-002     0.0000000000000000     
  -4.2999999999999983E-002     0.0000000000000000     
  -3.9999999999999980E-002     0.0000000000000000     
  -3.6999999999999977E-002     0.0000000000000000     
  -3.3999999999999975E-002     0.0000000000000000     
  -3.0999999999999972E-002     0.0000000000000000     
  -2.7999999999999969E-002     0.0000000000000000     
  -2.4999999999999967E-002     0.0000000000000000     
  -2.1999999999999964E-002     0.0000000000000000     
  -1.8999999999999961E-002     0.0000000000000000     
  -1.5999999999999959E-002     0.0000000000000000     
  -1.2999999999999956E-002     0.0000000000000000     
  -9.9999999999999534E-003     0.0000000000000000     
  -6.9999999999999507E-003     0.0000000000000000     
  -3.9999999999999480E-003     0.0000000000000000     
  -9.9999999999994538E-004     0.0000000000000000     
   2.0000000000000573E-003     0.0000000000000000     
   5.0000000000000600E-003     0.0000000000000000     
   8.0000000000000626E-003     0.0000000000000000     
   1.1000000000000065E-002     0.0000000000000000     
   1.4000000000000068E-002     0.0000000000000000     
   1.7000000000000015E-002     0.0000000000000000     
   2.0000000000000018E-002     0.0000000000000000     
   2.3000000000000020E-002     0.0000000000000000     
   2.6000000000000023E-002     0.0000000000000000     
   2.9000000000000026E-002     0.0000000000000000     
   3.2000000000000028E-002     0.0000000000000000     
   3.5000000000000031E-002     0.0000000000000000     
   3.8000000000000034E-002     0.0000000000000000     
   4.1000000000000036E-002     0.0000000000000000     
   4.4000000000000039E-002     0.0000000000000000     
   4.7000000000000042E-002     0.0000000000000000     
   5.0000000000000044E-002     0.0000000000000000     
   5.3000000000000047E-002     0.0000000000000000     
   5.6000000000000050E-002     0.0000000000000000     
   5.9000000000000052E-002     0.0000000000000000     
   6.2000000000000055E-002     0.0000000000000000     
   6.5000000000000058E-002     0.0000000000000000     
   6.8000000000000060E-002     0.0000000000000000     
   7.1000000000000063E-002     0.0000000000000000     
   7.4000000000000066E-002     0.0000000000000000     
   7.7000000000000068E-002     0.0000000000000000     
   8.0000000000000016E-002     0.0000000000000000     
   8.3000000000000018E-002     0.0000000000000000     
   8.6000000000000021E-002     0.0000000000000000     
   8.9000000000000024E-002     0.0000000000000000     
   9.2000000000000026E-002     0.0000000000000000     
   9.5000000000000029E-002     0.0000000000000000     
   9.8000000000000032E-002     0.0000000000000000     
  0.10100000000000003          0.0000000000000000     
  0.10400000000000004          0.0000000000000000     
  0.10700000000000004          0.0000000000000000     
  0.11000000000000004          0.0000000000000000     
  0.11300000000000004          0.0000000000000000     
  0.11600000000000005          0.0000000000000000     
  0.11900000000000005          0.0000000000000000     
  0.12200000000000005          0.0000000000000000     
  0.12500000000000006          0.0000000000000000     
  0.12800000000000006          0.0000000000000000     
  0.13100000000000006          0.0000000000000000     
  0.13400000000000006          0.0000000000000000     
  0.13700000000000007          0.0000000000000000     
  0.14000000000000007          0.0000000000000000     
  0.14300000000000007          0.0000000000000000     
  0.14600000000000007          0.0000000000000000     
  0.14900000000000008          0.0000000000000000     
  0.15200000000000008          0.0000000000000000     
  0.15500000000000008          0.0000000000000000     
  0.15800000000000008          0.0000000000000000     
  0.16100000000000009          0.0000000000000000     
  0.16400000000000009          0.0000000000000000     
  0.16700000000000009          0.0000000000000000     
  0.17000000000000010          0.0000000000000000     
  0.17300000000000010          0.0000000000000000     
  0.17600000000000010          0.0000000000000000     
  0.17899999999999999          0.0000000000000000     
  0.18200000000000000          0.0000000000000000     
  0.18500000000000000          0.0000000000000000     
  0.18800000000000000          0.0000000000000000     
  0.19100000000000000          0.0000000000000000     
  0.19400000000000001          0.0000000000000000     
  0.19700000000000001          0.0000000000000000     
  0.20000000000000001          0.0000000000000000     
  0.20300000000000001          0.0000000000000000     
  0.20600000000000002          0.0000000000000000     
  0.20900000000000002          0.0000000000000000     
  0.21200000000000002          0.0000000000000000     
  0.21500000000000002          0.0000000000000000     
  0.21800000000000003          0.0000000000000000     
  0.22100000000000003          0.0000000000000000     
  0.22400000000000003          0.0000000000000000     
  0.22700000000000004          0.0000000000000000     
  0.23000000000000004          0.0000000000000000     
  0.23300000000000004          0.0000000000000000     
  0.23600000000000004          0.0000000000000000     
  0.23900000000000005          0.0000000000000000     
  0.24200000000000005          0.0000000000000000     
  0.24500000000000005          0.0000000000000000     
  0.24800000000000005          0.0000000000000000     
  0.25100000000000006          0.0000000000000000     
  0.25400000000000006          0.0000000000000000     
  0.25700000000000006          0.0000000000000000     
  0.26000000000000006          0.0000000000000000     
  0.26300000000000007          0.0000000000000000     
  0.26600000000000007          0.0000000000000000     
  0.26900000000000007          0.0000000000000000     
  0.27200000000000008          0.0000000000000000     
  0.27500000000000008          0.0000000000000000     
  0.27800000000000008          0.0000000000000000     
  0.28100000000000008          0.0000000000000000     
  0.28400000000000009          0.0000000000000000     
  0.28700000000000009          0.0000000000000000     
  0.29000000000000009          0.0000000000000000     
  0.29300000000000009          0.0000000000000000     
  0.29600000000000010          0.0000000000000000     
  0.29900000000000010          0.0000000000000000     
  0.30200000000000010          0.0000000000000000     
  0.30499999999999999          0.0000000000000000     
  0.30800000000000000          0.0000000000000000     
  0.31100000000000000          0.0000000000000000     
  0.31400000000000000          0.0000000000000000     
  0.31700000000000000          0.0000000000000000     
  0.32000000000000001          0.0000000000000000     
  0.32300000000000001          0.0000000000000000     
  0.32600000000000001          0.0000000000000000     
  0.32900000000000001          0.0000000000000000     
  0.33200000000000002          0.0000000000000000     
  0.33500000000000002          0.0000000000000000     
  0.33800000000000002          0.0000000000000000     
  0.34100000000000003          0.0000000000000000     
  0.34400000000000003          0.0000000000000000     
  0.34700000000000003          0.0000000000000000     
  0.35000000000000003          0.0000000000000000     
  0.35300000000000004          0.0000000000000000     
  0.35600000000000004          0.0000000000000000     
  0.35900000000000004          0.0000000000000000     
  0.36200000000000004          0.0000000000000000     
  0.36500000000000005          0.0000000000000000     
  0.36800000000000005          0.0000000000000000     
  0.37100000000000005          0.0000000000000000     
  0.37400000000000005          0.0000000000000000     
  0.37700000000000006          0.0000000000000000     
  0.38000000000000006          0.0000000000000000     
  0.38300000000000006          0.0000000000000000     
  0.38600000000000007          0.0000000000000000     
  0.38900000000000007          0.0000000000000000     
  0.39200000000000007          0.0000000000000000     
  0.39500000000000007          0.0000000000000000     
  0.39800000000000008          0.0000000000000000     
  0.40100000000000008          0.0000000000000000     
  0.40400000000000008          0.0000000000000000     
  0.40700000000000008          0.0000000000000000     
  0.41000000000000009          0.0000000000000000     
  0.41300000000000009          0.0000000000000000     
  0.41600000000000009          0.0000000000000000     
  0.41900000000000009          0.0000000000000000     
  0.42200000000000010          0.0000000000000000     
  0.42500000000000010          0.0000000000000000     
  0.42800000000000010          0.0000000000000000     
  0.43100000000000011          0.0000000000000000     
  0.43400000000000000          0.0000000000000000     
  0.43700000000000000          0.0000000000000000     
  0.44000000000000000          0.0000000000000000     
  0.44300000000000000          0.0000000000000000     
  0.44600000000000001          0.0000000000000000     
  0.44900000000000001          0.0000000000000000     
  0.45200000000000001          0.0000000000000000     
  0.45500000000000002          0.0000000000000000     
  0.45800000000000002          0.0000000000000000     
  0.46100000000000002          0.0000000000000000     
  0.46400000000000002          0.0000000000000000     
  0.46700000000000003          0.0000000000000000     
  0.47000000000000003          0.0000000000000000     
  0.47300000000000003          0.0000000000000000     
  0.47600000000000003          0.0000000000000000     
  0.47900000000000004          0.0000000000000000     
  0.48200000000000004          0.0000000000000000     
  0.48500000000000004          0.0000000000000000     
  0.48800000000000004          0.0000000000000000     
  0.49100000000000005          0.0000000000000000     
  0.49400000000000005          0.0000000000000000     
  0.49700000000000005          0.0000000000000000     
  0.50000000000000000          0.0000000000000000     
  0.50300000000000011          0.0000000000000000     
  0.50600000000000001          0.0000000000000000     
  0.50900000000000012          0.0000000000000000     
  0.51200000000000001          0.0000000000000000     
  0.51500000000000012          1.5197252812089990E-041
  0.51800000000000002         -2.8541510823747144E-041
  0.52100000000000013          4.1283615545169533E-041
  0.52400000000000002          5.9038461799612972E-041
  0.52700000000000014         -1.0593323791361937E-040
  0.53000000000000003         -2.1815485024460766E-040
  0.53300000000000014         -1.3971226838691831E-039
  0.53600000000000003         -2.0983880358770174E-040
  0.53900000000000015         -1.7377096838608330E-040
  0.54200000000000004          6.8399402218843469E-040
  0.54500000000000015          2.9777248835765853E-039
  0.54800000000000004          5.1016700298791230E-039
  0.55100000000000016         -4.8673114301085974E-039
  0.55400000000000005         -6.6224593998921903E-039
  0.55700000000000016         -6.3758822095200634E-039
  0.56000000000000005         -1.3517606549438017E-039
  0.56299999999999994         -8.9975731661818524E-039
  0.56600000000000006         -3.6607136942483244E-039
  0.56899999999999995          1.8112614977131802E-040
  0.57200000000000006          9.0071817677466061E-039
  0.57499999999999996          1.9478978738863974E-038
  0.57800000000000007          3.3111055680713586E-038
  0.58099999999999996          3.6375573488745227E-038
  0.58400000000000007          3.5846164222779813E-038
  0.58699999999999997          2.4160160600309878E-038
  0.59000000000000008         -1.2105151324874801E-039
  0.59299999999999997         -4.0066110479909151E-038
  0.59600000000000009         -8.8279414079107847E-038
  0.59899999999999998         -1.3581225776180027E-037
  0.60200000000000009         -1.7029443696751200E-037
  0.60500000000000020         -1.7336745394427299E-037
  0.60800000000000010         -1.2827610810771797E-037
  0.61100000000000021         -2.2906801132685575E-038
  0.61400000000000010          1.4408883554455308E-037
  0.61700000000000021          3.5719231858391487E-037
  0.62000000000000011          5.8079557066397113E-037
  0.62300000000000022          7.5816448300572151E-037
  0.62600000000000011          8.1717598730827030E-037
  0.62900000000000000          6.8238953904009277E-037
  0.63200000000000012          2.9383544740071436E-037
  0.63500000000000001         -3.6942679526284963E-037
  0.63800000000000012         -1.2649287023439486E-036
  0.64100000000000001         -2.2678150708146988E-036
  0.64400000000000013         -3.1648048236827483E-036
  0.64700000000000002         -3.6684560401018946E-036
  0.65000000000000013         -3.4572957630937152E-036
  0.65300000000000002         -2.2433007909500202E-036
  0.65600000000000014          1.3836253508507379E-037
  0.65900000000000003          3.6303151084087697E-036
  0.66200000000000014          7.8655961913936765E-036
  0.66500000000000004          1.2119059260575699E-035
  0.66800000000000015          1.5327007032399233E-035
  0.67100000000000004          1.6200096884703789E-035
  0.67400000000000015          1.3442206271361905E-035
  0.67700000000000005          6.0674021071785290E-036
  0.68000000000000016         -6.2202298362918642E-036
  0.68300000000000005         -2.2649208857196987E-035
  0.68600000000000017         -4.1098444064328245E-035
  0.68900000000000006         -5.8018224239724024E-035
  0.69200000000000017         -6.8659196341598923E-035
  0.69500000000000006         -6.7684811695729032E-035
  0.69800000000000018         -5.0182390709720366E-035
  0.70100000000000007         -1.3001683460493268E-035
  0.70400000000000018          4.3756912728534048E-035
  0.70700000000000007          1.1538810558221354E-034
  0.71000000000000019          1.9172896471085045E-034
  0.71300000000000008          2.5720858335994853E-034
  0.71600000000000019          2.9215356300051114E-034
  0.71900000000000008          2.7555978819860661E-034
  0.72200000000000020          1.8929254879069230E-034
  0.72500000000000009          2.3342204344978778E-035
  0.72800000000000020         -2.1861854514567488E-034
  0.73100000000000009         -5.1448941501371943E-034
  0.73400000000000021         -8.2117683501138147E-034
  0.73700000000000010         -1.0756183306704102E-033
  0.74000000000000021         -1.2005719575183897E-033
  0.74300000000000010         -1.1157539292868745E-033
  0.74600000000000022         -7.5397807342874153E-034
  0.74900000000000011         -8.0751962037025033E-035
  0.75200000000000022          8.8553901680346154E-034
  0.75500000000000012          2.0569142937966867E-033
  0.75800000000000001          3.2673767930538736E-033
  0.76100000000000012          4.2776642503825300E-033
  0.76400000000000001          4.7970846310618376E-033
  0.76700000000000013          4.5242437089579343E-033
  0.77000000000000002          3.2052227434558422E-033
  0.77300000000000013          7.0369535435365725E-034
  0.77600000000000002         -2.9269759207958541E-033
  0.77900000000000014         -7.3835444636120470E-033
  0.78200000000000003         -1.2081029268344799E-032
  0.78500000000000014         -1.6165795668525694E-032
  0.78800000000000003         -1.8586935799987323E-032
  0.79100000000000015         -1.8232662110616186E-032
  0.79400000000000004         -1.4127661462444917E-032
  0.79700000000000015         -5.6742964443601610E-033
  0.80000000000000004          7.0941215170305981E-033
  0.80300000000000016          2.3292759514145725E-032
  0.80600000000000005          4.1051449686393532E-032
  0.80900000000000016          5.7522880189682644E-032
  0.81200000000000006          6.9080352357049025E-032
  0.81500000000000017          7.1731881045858501E-032
  0.81800000000000006          6.1746342027341756E-032
  0.82100000000000017          3.6445654927784461E-032
  0.82400000000000007         -4.9285343531303657E-033
  0.82700000000000018         -6.0409799275919025E-032
  0.83000000000000007         -1.2473220297837869E-031
  0.83300000000000018         -1.8916729834055694E-031
  0.83600000000000008         -2.4193896198019065E-031
  0.83900000000000019         -2.6932935889713671E-031
  0.84200000000000008         -2.5750263826592404E-031
  0.84500000000000020         -1.9495295919945568E-031
  0.84800000000000009         -7.5341633284012751E-032
  0.85100000000000020          9.9654688637456587E-032
  0.85400000000000009          3.1798225412222039E-031
  0.85700000000000021          5.5590362964206204E-031
  0.86000000000000010          7.7830972924518832E-031
  0.86300000000000021          9.4110578834668861E-031
  0.86600000000000010          9.9591145539321161E-031
  0.86900000000000022          8.9699394388895762E-031
  0.87200000000000011          6.0994620511779181E-031
  0.87500000000000022          1.2118095152096004E-031
  0.87800000000000011         -5.5310618117272788E-031
  0.88100000000000001         -1.3601701694776100E-030
  0.88400000000000012         -2.2079464669620523E-030
  0.88700000000000001         -2.9679474598127311E-030
  0.89000000000000012         -3.4850683808272780E-030
  0.89300000000000002         -3.5947843745833673E-030
  0.89600000000000013         -3.1471441126277292E-030
  0.89900000000000002         -2.0357277899749512E-030
  0.90200000000000014         -2.2835739814408531E-031
  0.90500000000000003          2.2048025454973150E-030
  0.90800000000000014          5.0710448680259724E-030
  0.91100000000000003          8.0483103241693831E-030
  0.91400000000000015          1.0696780815486473E-029
  0.91700000000000004          1.2492432735814097E-029
  0.92000000000000015          1.2883724822465542E-029
  0.92300000000000004          1.1369333793462414E-029
  0.92600000000000016          7.5910469873365900E-030
  0.92900000000000005          1.4319423550479969E-030
  0.93200000000000016         -6.8935600726338278E-030
  0.93500000000000005         -1.6773841573962267E-029
  0.93800000000000017         -2.7175087006452230E-029
  0.94100000000000006         -3.6672713442858460E-029
  0.94400000000000017         -4.3550345512610757E-029
  0.94700000000000006         -4.5970812119955489E-029
  0.95000000000000018         -4.2214286086537848E-029
  0.95300000000000007         -3.0967268674523871E-029
  0.95600000000000018         -1.1634672238659494E-029
  0.95900000000000007          1.5364060768937717E-029
  0.96200000000000019          4.8361965320558277E-029
  0.96500000000000008          8.4325796059928016E-029
  0.96800000000000019          1.1890019710105626E-028
  0.97100000000000009          1.4665348111929696E-028
  0.97400000000000020          1.6154599831278055E-028
  0.97700000000000009          1.5761631366404336E-028
  0.98000000000000020          1.2984854570891785E-028
  0.98300000000000010          7.5149794192816542E-029
  0.98600000000000021         -6.6683627868441068E-030
  0.98900000000000010         -1.1203900450694188E-028
  0.99200000000000021         -2.3307215195511188E-028
  0.99500000000000011         -3.5742578223870183E-028
  0.99800000000000022         -4.6875158517455052E-028
   1.0010000000000001         -5.4781154866740496E-028
   1.0040000000000002         -5.7429583400024386E-028
   1.0070000000000001         -5.2928703097189569E-028
   1.0100000000000000         -3.9821387592181593E-028
   1.0130000000000001         -1.7403363850489718E-028
   1.0160000000000000          1.3971964519999326E-028
   1.0190000000000001          5.2646047275306248E-028
   1.0220000000000000          9.5513218346949738E-028
   1.0250000000000001          1.3803089412121686E-027
   1.0280000000000000          1.7442172210326278E-027
   1.0310000000000001          1.9809260969037953E-027
   1.0340000000000000          2.0227369098850076E-027
   1.0370000000000001          1.8085431290052635E-027
   1.0400000000000000          1.2935977517273304E-027
   1.0430000000000001          4.5981847584723575E-028
   1.0460000000000000         -6.7455186878369297E-028
   1.0490000000000002         -2.0473241789636685E-027
   1.0520000000000000         -3.5482899140771521E-027
   1.0550000000000002         -5.0201620808418868E-027
   1.0580000000000001         -6.2657110824880562E-027
   1.0610000000000002         -7.0618747798067352E-027
   1.0640000000000001         -7.1808842529844946E-027
   1.0670000000000002         -6.4176416725518004E-027
   1.0700000000000001         -4.6215909889672162E-027
   1.0730000000000002         -1.7303119884342068E-027
   1.0760000000000001          2.1988318241809355E-027
   1.0790000000000002          6.9634183727589694E-027
   1.0820000000000001          1.2201790203424647E-026
   1.0850000000000002          1.7394663469584245E-026
   1.0880000000000001          2.1886389502559634E-026
   1.0910000000000002          2.4928459352690462E-026
   1.0940000000000001          2.5745793241429752E-026
   1.0970000000000002          2.3623712050115035E-026
