 -0.39999999999999997          0.0000000000000000     
 -0.39699999999999996          0.0000000000000000     
 -0.39399999999999996          0.0000000000000000     
 -0.39099999999999996          0.0000000000000000     
 -0.38799999999999996          0.0000000000000000     
 -0.38499999999999995          0.0000000000000000     
 -0.38199999999999995          0.0000000000000000     
 -0.37899999999999995          0.0000000000000000     
 -0.37599999999999995          0.0000000000000000     
 -0.37299999999999994          0.0000000000000000     
 -0.37000000000000000          0.0000000000000000     
 -0.36699999999999999          0.0000000000000000     
 -0.36399999999999999          0.0000000000000000     
 -0.36099999999999999          0.0000000000000000     
 -0.35799999999999998          0.0000000000000000     
 -0.35499999999999998          0.0000000000000000     
 -0.35199999999999998          0.0000000000000000     
 -0.34899999999999998          0.0000000000000000     
 -0.34599999999999997          0.0000000000000000     
 -0.34299999999999997          0.0000000000000000     
 -0.33999999999999997          0.0000000000000000     
 -0.33699999999999997          0.0000000000000000     
 -0.33399999999999996          0.0000000000000000     
 -0.33099999999999996          0.0000000000000000     
 -0.32799999999999996          0.0000000000000000     
 -0.32499999999999996          0.0000000000000000     
 -0.32199999999999995          0.0000000000000000     
 -0.31899999999999995          0.0000000000000000     
 -0.31599999999999995          0.0000000000000000     
 -0.31299999999999994          0.0000000000000000     
 -0.30999999999999994          0.0000000000000000     
 -0.30699999999999994          0.0000000000000000     
 -0.30399999999999994          0.0000000000000000     
 -0.30099999999999993          0.0000000000000000     
 -0.29799999999999993          0.0000000000000000     
 -0.29499999999999998          0.0000000000000000     
 -0.29199999999999998          0.0000000000000000     
 -0.28899999999999998          0.0000000000000000     
 -0.28599999999999998          0.0000000000000000     
 -0.28299999999999997          0.0000000000000000     
 -0.27999999999999997          0.0000000000000000     
 -0.27699999999999997          0.0000000000000000     
 -0.27399999999999997          0.0000000000000000     
 -0.27099999999999996          0.0000000000000000     
 -0.26799999999999996          0.0000000000000000     
 -0.26499999999999996          0.0000000000000000     
 -0.26199999999999996          0.0000000000000000     
 -0.25899999999999995          0.0000000000000000     
 -0.25599999999999995          0.0000000000000000     
 -0.25300000000000000          0.0000000000000000     
 -0.24999999999999997          0.0000000000000000     
 -0.24699999999999997          0.0000000000000000     
 -0.24399999999999997          0.0000000000000000     
 -0.24099999999999996          0.0000000000000000     
 -0.23799999999999996          0.0000000000000000     
 -0.23499999999999996          0.0000000000000000     
 -0.23199999999999996          0.0000000000000000     
 -0.22899999999999995          0.0000000000000000     
 -0.22599999999999995          0.0000000000000000     
 -0.22299999999999998          0.0000000000000000     
 -0.21999999999999997          0.0000000000000000     
 -0.21699999999999997          0.0000000000000000     
 -0.21399999999999997          0.0000000000000000     
 -0.21099999999999997          0.0000000000000000     
 -0.20799999999999996          0.0000000000000000     
 -0.20499999999999996          0.0000000000000000     
 -0.20199999999999996          0.0000000000000000     
 -0.19899999999999995          0.0000000000000000     
 -0.19599999999999995          0.0000000000000000     
 -0.19299999999999995          0.0000000000000000     
 -0.18999999999999997          0.0000000000000000     
 -0.18699999999999997          0.0000000000000000     
 -0.18399999999999997          0.0000000000000000     
 -0.18099999999999997          0.0000000000000000     
 -0.17799999999999996          0.0000000000000000     
 -0.17499999999999996          0.0000000000000000     
 -0.17199999999999996          0.0000000000000000     
 -0.16899999999999996          0.0000000000000000     
 -0.16599999999999995          0.0000000000000000     
 -0.16299999999999995          0.0000000000000000     
 -0.15999999999999998          0.0000000000000000     
 -0.15699999999999997          0.0000000000000000     
 -0.15399999999999997          0.0000000000000000     
 -0.15099999999999997          0.0000000000000000     
 -0.14799999999999996          0.0000000000000000     
 -0.14499999999999996          0.0000000000000000     
 -0.14199999999999996          0.0000000000000000     
 -0.13899999999999996          0.0000000000000000     
 -0.13599999999999995          0.0000000000000000     
 -0.13299999999999995          0.0000000000000000     
 -0.12999999999999995          0.0000000000000000     
 -0.12699999999999995          0.0000000000000000     
 -0.12399999999999994          0.0000000000000000     
 -0.12099999999999994          0.0000000000000000     
 -0.11799999999999994          0.0000000000000000     
 -0.11499999999999994          0.0000000000000000     
 -0.11199999999999993          0.0000000000000000     
 -0.10899999999999999          0.0000000000000000     
 -0.10599999999999998          0.0000000000000000     
 -0.10299999999999998          0.0000000000000000     
  -9.9999999999999978E-002     0.0000000000000000     
  -9.6999999999999975E-002     0.0000000000000000     
  -9.3999999999999972E-002     0.0000000000000000     
  -9.0999999999999970E-002     0.0000000000000000     
  -8.7999999999999967E-002     0.0000000000000000     
  -8.4999999999999964E-002     0.0000000000000000     
  -8.1999999999999962E-002     0.0000000000000000     
  -7.8999999999999959E-002     0.0000000000000000     
  -7.5999999999999956E-002     0.0000000000000000     
  -7.2999999999999954E-002     0.0000000000000000     
  -6.9999999999999951E-002     0.0000000000000000     
  -6.6999999999999948E-002     0.0000000000000000     
  -6.3999999999999946E-002     0.0000000000000000     
  -6.0999999999999943E-002     0.0000000000000000     
  -5.7999999999999940E-002     0.0000000000000000     
  -5.4999999999999938E-002     0.0000000000000000     
  -5.1999999999999935E-002     0.0000000000000000     
  -4.8999999999999932E-002     0.0000000000000000     
  -4.5999999999999985E-002     0.0000000000000000     
  -4.2999999999999983E-002     0.0000000000000000     
  -3.9999999999999980E-002     0.0000000000000000     
  -3.6999999999999977E-002     0.0000000000000000     
  -3.3999999999999975E-002     0.0000000000000000     
  -3.0999999999999972E-002     0.0000000000000000     
  -2.7999999999999969E-002     0.0000000000000000     
  -2.4999999999999967E-002     0.0000000000000000     
  -2.1999999999999964E-002     0.0000000000000000     
  -1.8999999999999961E-002     0.0000000000000000     
  -1.5999999999999959E-002     0.0000000000000000     
  -1.2999999999999956E-002     0.0000000000000000     
  -9.9999999999999534E-003     0.0000000000000000     
  -6.9999999999999507E-003     0.0000000000000000     
  -3.9999999999999480E-003     0.0000000000000000     
  -9.9999999999994538E-004     0.0000000000000000     
   2.0000000000000573E-003     0.0000000000000000     
   5.0000000000000600E-003     0.0000000000000000     
   8.0000000000000626E-003     0.0000000000000000     
   1.1000000000000065E-002     0.0000000000000000     
   1.4000000000000068E-002     0.0000000000000000     
   1.7000000000000015E-002     0.0000000000000000     
   2.0000000000000018E-002     0.0000000000000000     
   2.3000000000000020E-002     0.0000000000000000     
   2.6000000000000023E-002     0.0000000000000000     
   2.9000000000000026E-002     0.0000000000000000     
   3.2000000000000028E-002     0.0000000000000000     
   3.5000000000000031E-002     0.0000000000000000     
   3.8000000000000034E-002     0.0000000000000000     
   4.1000000000000036E-002     0.0000000000000000     
   4.4000000000000039E-002     0.0000000000000000     
   4.7000000000000042E-002     0.0000000000000000     
   5.0000000000000044E-002     0.0000000000000000     
   5.3000000000000047E-002     0.0000000000000000     
   5.6000000000000050E-002     0.0000000000000000     
   5.9000000000000052E-002     0.0000000000000000     
   6.2000000000000055E-002     0.0000000000000000     
   6.5000000000000058E-002     0.0000000000000000     
   6.8000000000000060E-002     0.0000000000000000     
   7.1000000000000063E-002     0.0000000000000000     
   7.4000000000000066E-002     0.0000000000000000     
   7.7000000000000068E-002     0.0000000000000000     
   8.0000000000000016E-002     0.0000000000000000     
   8.3000000000000018E-002     0.0000000000000000     
   8.6000000000000021E-002     0.0000000000000000     
   8.9000000000000024E-002     0.0000000000000000     
   9.2000000000000026E-002     0.0000000000000000     
   9.5000000000000029E-002     0.0000000000000000     
   9.8000000000000032E-002     0.0000000000000000     
  0.10100000000000003          0.0000000000000000     
  0.10400000000000004          0.0000000000000000     
  0.10700000000000004          0.0000000000000000     
  0.11000000000000004          0.0000000000000000     
  0.11300000000000004          0.0000000000000000     
  0.11600000000000005          0.0000000000000000     
  0.11900000000000005          0.0000000000000000     
  0.12200000000000005          0.0000000000000000     
  0.12500000000000006          0.0000000000000000     
  0.12800000000000006          0.0000000000000000     
  0.13100000000000006          0.0000000000000000     
  0.13400000000000006          0.0000000000000000     
  0.13700000000000007          0.0000000000000000     
  0.14000000000000007          0.0000000000000000     
  0.14300000000000007          0.0000000000000000     
  0.14600000000000007          0.0000000000000000     
  0.14900000000000008          0.0000000000000000     
  0.15200000000000008          0.0000000000000000     
  0.15500000000000008          0.0000000000000000     
  0.15800000000000008          0.0000000000000000     
  0.16100000000000009          0.0000000000000000     
  0.16400000000000009          0.0000000000000000     
  0.16700000000000009          0.0000000000000000     
  0.17000000000000010          0.0000000000000000     
  0.17300000000000010          0.0000000000000000     
  0.17600000000000010          0.0000000000000000     
  0.17899999999999999          0.0000000000000000     
  0.18200000000000000          0.0000000000000000     
  0.18500000000000000          0.0000000000000000     
  0.18800000000000000          0.0000000000000000     
  0.19100000000000000          0.0000000000000000     
  0.19400000000000001          0.0000000000000000     
  0.19700000000000001          0.0000000000000000     
  0.20000000000000001          0.0000000000000000     
  0.20300000000000001          0.0000000000000000     
  0.20600000000000002          0.0000000000000000     
  0.20900000000000002          0.0000000000000000     
  0.21200000000000002          0.0000000000000000     
  0.21500000000000002          0.0000000000000000     
  0.21800000000000003          0.0000000000000000     
  0.22100000000000003          0.0000000000000000     
  0.22400000000000003          0.0000000000000000     
  0.22700000000000004          0.0000000000000000     
  0.23000000000000004          0.0000000000000000     
  0.23300000000000004          0.0000000000000000     
  0.23600000000000004          0.0000000000000000     
  0.23900000000000005          0.0000000000000000     
  0.24200000000000005          0.0000000000000000     
  0.24500000000000005          0.0000000000000000     
  0.24800000000000005          0.0000000000000000     
  0.25100000000000006          0.0000000000000000     
  0.25400000000000006          0.0000000000000000     
  0.25700000000000006          0.0000000000000000     
  0.26000000000000006          0.0000000000000000     
  0.26300000000000007          0.0000000000000000     
  0.26600000000000007          0.0000000000000000     
  0.26900000000000007          0.0000000000000000     
  0.27200000000000008          0.0000000000000000     
  0.27500000000000008          0.0000000000000000     
  0.27800000000000008          0.0000000000000000     
  0.28100000000000008          0.0000000000000000     
  0.28400000000000009          0.0000000000000000     
  0.28700000000000009          0.0000000000000000     
  0.29000000000000009          0.0000000000000000     
  0.29300000000000009          0.0000000000000000     
  0.29600000000000010          0.0000000000000000     
  0.29900000000000010          0.0000000000000000     
  0.30200000000000010          0.0000000000000000     
  0.30499999999999999          0.0000000000000000     
  0.30800000000000000          0.0000000000000000     
  0.31100000000000000          0.0000000000000000     
  0.31400000000000000          0.0000000000000000     
  0.31700000000000000          0.0000000000000000     
  0.32000000000000001          0.0000000000000000     
  0.32300000000000001          0.0000000000000000     
  0.32600000000000001          0.0000000000000000     
  0.32900000000000001          0.0000000000000000     
  0.33200000000000002          0.0000000000000000     
  0.33500000000000002          0.0000000000000000     
  0.33800000000000002          0.0000000000000000     
  0.34100000000000003          0.0000000000000000     
  0.34400000000000003          0.0000000000000000     
  0.34700000000000003          0.0000000000000000     
  0.35000000000000003          0.0000000000000000     
  0.35300000000000004          0.0000000000000000     
  0.35600000000000004          0.0000000000000000     
  0.35900000000000004          0.0000000000000000     
  0.36200000000000004          0.0000000000000000     
  0.36500000000000005          0.0000000000000000     
  0.36800000000000005          0.0000000000000000     
  0.37100000000000005          0.0000000000000000     
  0.37400000000000005          0.0000000000000000     
  0.37700000000000006          0.0000000000000000     
  0.38000000000000006          0.0000000000000000     
  0.38300000000000006          0.0000000000000000     
  0.38600000000000007          0.0000000000000000     
  0.38900000000000007          0.0000000000000000     
  0.39200000000000007          0.0000000000000000     
  0.39500000000000007          0.0000000000000000     
  0.39800000000000008          0.0000000000000000     
  0.40100000000000008          0.0000000000000000     
  0.40400000000000008          0.0000000000000000     
  0.40700000000000008          0.0000000000000000     
  0.41000000000000009          0.0000000000000000     
  0.41300000000000009          0.0000000000000000     
  0.41600000000000009          0.0000000000000000     
  0.41900000000000009          0.0000000000000000     
  0.42200000000000010          0.0000000000000000     
  0.42500000000000010          0.0000000000000000     
  0.42800000000000010          0.0000000000000000     
  0.43100000000000011          0.0000000000000000     
  0.43400000000000000          0.0000000000000000     
  0.43700000000000000          0.0000000000000000     
  0.44000000000000000          0.0000000000000000     
  0.44300000000000000          0.0000000000000000     
  0.44600000000000001          0.0000000000000000     
  0.44900000000000001          0.0000000000000000     
  0.45200000000000001          0.0000000000000000     
  0.45500000000000002          0.0000000000000000     
  0.45800000000000002          0.0000000000000000     
  0.46100000000000002          0.0000000000000000     
  0.46400000000000002          0.0000000000000000     
  0.46700000000000003          0.0000000000000000     
  0.47000000000000003          0.0000000000000000     
  0.47300000000000003          0.0000000000000000     
  0.47600000000000003          0.0000000000000000     
  0.47900000000000004          0.0000000000000000     
  0.48200000000000004          0.0000000000000000     
  0.48500000000000004          0.0000000000000000     
  0.48800000000000004          0.0000000000000000     
  0.49100000000000005          0.0000000000000000     
  0.49400000000000005          0.0000000000000000     
  0.49700000000000005          0.0000000000000000     
  0.50000000000000000          0.0000000000000000     
  0.50300000000000011          0.0000000000000000     
  0.50600000000000001          0.0000000000000000     
  0.50900000000000012          0.0000000000000000     
  0.51200000000000001          0.0000000000000000     
  0.51500000000000012          0.0000000000000000     
  0.51800000000000002          0.0000000000000000     
  0.52100000000000013          0.0000000000000000     
  0.52400000000000002          0.0000000000000000     
  0.52700000000000014          0.0000000000000000     
  0.53000000000000003          0.0000000000000000     
  0.53300000000000014          0.0000000000000000     
  0.53600000000000003          0.0000000000000000     
  0.53900000000000015          0.0000000000000000     
  0.54200000000000004          0.0000000000000000     
  0.54500000000000015          0.0000000000000000     
  0.54800000000000004          0.0000000000000000     
  0.55100000000000016          0.0000000000000000     
  0.55400000000000005          0.0000000000000000     
  0.55700000000000016          0.0000000000000000     
  0.56000000000000005          0.0000000000000000     
  0.56299999999999994          0.0000000000000000     
  0.56600000000000006          0.0000000000000000     
  0.56899999999999995          0.0000000000000000     
  0.57200000000000006          0.0000000000000000     
  0.57499999999999996          0.0000000000000000     
  0.57800000000000007          0.0000000000000000     
  0.58099999999999996          0.0000000000000000     
  0.58400000000000007          0.0000000000000000     
  0.58699999999999997          3.5196222428668695E-039
  0.59000000000000008          4.0029562061199890E-039
  0.59299999999999997          2.9573654527808245E-039
  0.59600000000000009          1.0380601031828486E-040
  0.59899999999999998         -3.2069931813681626E-040
  0.60200000000000009         -7.0139755170044989E-039
  0.60500000000000020         -1.2109823865454368E-038
  0.60800000000000010         -1.6311763861215148E-038
  0.61100000000000021         -1.6953127864078252E-038
  0.61400000000000010         -1.4892614026607534E-038
  0.61700000000000021         -2.1683103579273129E-038
  0.62000000000000011         -1.3575659570227358E-038
  0.62300000000000022          1.8203580379875691E-039
  0.62600000000000011          2.5063851517091524E-038
  0.62900000000000000          5.4242400289239747E-038
  0.63200000000000012          7.7092748457381909E-038
  0.63500000000000001          9.9842407486559323E-038
  0.63800000000000012          1.0306960159187193E-037
  0.64100000000000001          7.7298206475223433E-038
  0.64400000000000013          1.7037966366615231E-038
  0.64700000000000002         -7.7973096517744194E-038
  0.65000000000000013         -1.9854155744768981E-037
  0.65300000000000002         -3.2701613439747081E-037
  0.65600000000000014         -4.3032446615416836E-037
  0.65900000000000003         -4.7023648132752946E-037
  0.66200000000000014         -4.0550287663445707E-037
  0.66500000000000004         -2.0313659767197216E-037
  0.66800000000000015          1.4900322804164287E-037
  0.67100000000000004          6.2984723778263943E-037
  0.67400000000000015          1.1788871275518553E-036
  0.67700000000000005          1.6858003019267579E-036
  0.68000000000000016          2.0026791203396518E-036
  0.68300000000000005          1.9625487163937283E-036
  0.68600000000000017          1.4116847142684561E-036
  0.68900000000000006          2.5351110255278445E-037
  0.69200000000000017         -1.5007247424354984E-036
  0.69500000000000006         -3.6880894765007961E-036
  0.69800000000000018         -5.9682339538809564E-036
  0.70100000000000007         -7.8281614168623850E-036
  0.70400000000000018         -8.6303792928072592E-036
  0.70700000000000007         -7.7134235458386606E-036
  0.71000000000000019         -4.5397928916373081E-036
  0.71300000000000008          1.1240373994243669E-036
  0.71600000000000019          9.0247503715855762E-036
  0.71900000000000008          1.8274273698705388E-035
  0.72200000000000020          2.7291302701441201E-035
  0.72500000000000009          3.3879579007012632E-035
  0.72800000000000020          3.5479260901825020E-035
  0.73100000000000009          2.9602393558572458E-035
  0.73400000000000021          1.4430938491182136E-035
  0.73700000000000010         -1.0495552584901821E-035
  0.74000000000000021         -4.3624453456118104E-035
  0.74300000000000010         -8.0924179830274958E-035
  0.74600000000000022         -1.1578407032405745E-034
  0.74900000000000011         -1.3944670606432739E-034
  0.75200000000000022         -1.4208610859730251E-034
  0.75500000000000012         -1.1454117368621902E-034
  0.75800000000000001         -5.0575360212974117E-035
  0.76100000000000012          5.0620563671360458E-035
  0.76400000000000001          1.8213070499612025E-034
  0.76700000000000013          3.2779558573308712E-034
  0.77000000000000002          4.6209041973568984E-034
  0.77300000000000013          5.5193766499677249E-034
  0.77600000000000002          5.6079706513370714E-034
  0.77900000000000014          4.5502730737515709E-034
  0.78200000000000003          2.1201271464494920E-034
  0.78500000000000014         -1.7098343311971705E-034
  0.78800000000000003         -6.6878715218881098E-034
  0.79100000000000015         -1.2230576095312204E-033
  0.79400000000000004         -1.7418915845091917E-033
  0.79700000000000015         -2.1060899029942398E-033
  0.80000000000000004         -2.1832149818905504E-033
  0.80300000000000016         -1.8493776691767626E-033
  0.80600000000000005         -1.0171270222952309E-033
  0.80900000000000016          3.3392211574007307E-034
  0.81200000000000006          2.1288857367952767E-033
  0.81500000000000017          4.1781054716243891E-033
  0.81800000000000006          6.1732813341888328E-033
  0.82100000000000017          7.7052833294020137E-033
  0.82400000000000007          8.3076884030486280E-033
  0.82700000000000018          7.5264318272872354E-033
  0.83000000000000007          5.0111054223048035E-033
  0.83300000000000018          6.1787903830403024E-034
  0.83600000000000008         -5.4915755420549034E-033
  0.83900000000000019         -1.2774963687631194E-032
  0.84200000000000008         -2.0280233859580461E-032
  0.84500000000000020         -2.6682753965411162E-032
  0.84800000000000009         -3.0404009768103172E-032
  0.85100000000000020         -2.9816681946879470E-032
  0.85400000000000009         -2.3526807903955541E-032
  0.85700000000000021         -1.0706240042391437E-032
  0.86000000000000010          8.5680123432183318E-033
  0.86300000000000021          3.3026127107027977E-032
  0.86600000000000010          6.0038536200135610E-032
  0.86900000000000022          8.5637097470613897E-032
  0.87200000000000011          1.0478039254347947E-031
  0.87500000000000022          1.1189279824373215E-031
  0.87800000000000011          1.0167109216236985E-031
  0.88100000000000001          7.0098008290376502E-032
  0.88400000000000012          1.5556107718514969E-032
  0.88700000000000001         -6.0123300966692345E-032
  0.89000000000000012         -1.5087177712803777E-031
  0.89300000000000002         -2.4607287165653054E-031
  0.89600000000000013         -3.3092606615778708E-031
  0.89900000000000002         -3.8762995355403353E-031
  0.90200000000000014         -3.9743370255615248E-031
  0.90500000000000003         -3.4347488613556474E-031
  0.90800000000000014         -2.1418022227064944E-031
  0.91100000000000003         -6.8193558223519001E-033
  0.91400000000000015          2.6930891535270273E-031
  0.91700000000000004          5.9069705675075989E-031
  0.92000000000000015          9.1909370165031451E-031
  0.92300000000000004          1.2031960206417001E-030
  0.92600000000000016          1.3829478330031938E-030
  0.92900000000000005          1.3965133531871965E-030
  0.93200000000000016          1.1895912946192726E-030
  0.93500000000000005          7.2631201378948305E-031
  0.93800000000000017          4.2588591016847770E-034
  0.94100000000000006         -9.5485703054158258E-031
  0.94400000000000017         -2.0602774083719946E-030
  0.94700000000000006         -3.1891714580517128E-030
  0.95000000000000018         -4.1730042878989209E-030
  0.95300000000000007         -4.8149183846670069E-030
  0.95600000000000018         -4.9115445012412013E-030
  0.95900000000000007         -4.2819926718918814E-030
  0.96200000000000019         -2.8018673744702917E-030
  0.96500000000000008         -4.3848591481289380E-031
  0.96800000000000019          2.7175632806362912E-030
  0.97100000000000009          6.4301618550473492E-030
  0.97400000000000020          1.0310587299553313E-029
  0.97700000000000009          1.3830997284370110E-029
  0.98000000000000020          1.6361898579958832E-029
  0.98300000000000010          1.7235080086853948E-029
  0.98600000000000021          1.5829813776925270E-029
  0.98900000000000010          1.1676456122551743E-029
  0.99200000000000021          4.5670864195776483E-030
  0.99500000000000011         -5.3401409493166823E-030
  0.99800000000000022         -1.7439602641554753E-029
   1.0010000000000001         -3.0637746851480428E-029
   1.0040000000000002         -4.3370048142248440E-029
   1.0070000000000001         -5.3688687471912067E-029
   1.0100000000000000         -5.9427857550006722E-029
   1.0130000000000001         -5.8444995099639023E-029
   1.0160000000000000         -4.8925831089073056E-029
   1.0190000000000001         -2.9726894635222611E-029
   1.0220000000000000         -7.2113994389639562E-031
   1.0250000000000001          3.6901443246153395E-029
   1.0280000000000000          8.0428917943256898E-029
   1.0310000000000001          1.2557463904297653E-028
   1.0340000000000000          1.6662084968302233E-028
   1.0370000000000001          1.9679335691805560E-028
   1.0400000000000000          2.0888143295002440E-028
   1.0430000000000001          1.9608333430859709E-028
   1.0460000000000000          1.5302557392551776E-028
   1.0490000000000002          7.6873315862576865E-029
   1.0520000000000000         -3.1598901585696952E-029
   1.0550000000000002         -1.6711462688586238E-028
   1.0580000000000001         -3.1935554316009066E-028
   1.0610000000000002         -4.7292762649237860E-028
   1.0640000000000001         -6.0798449431107730E-028
   1.0670000000000002         -7.0158449207395599E-028
   1.0700000000000001         -7.2981798075831464E-028
   1.0730000000000002         -6.7063010983863205E-028
   1.0760000000000001         -5.0715847172542247E-028
   1.0790000000000002         -2.3130312167791413E-028
   1.0820000000000001          1.5286246166528229E-028
   1.0850000000000002          6.2630120648398353E-028
   1.0880000000000001          1.1533766879239717E-027
   1.0910000000000002          1.6818631172435559E-027
   1.0940000000000001          2.1450473449432003E-027
   1.0970000000000002          2.4661620415582371E-027
