 -0.39999999999999997          0.0000000000000000     
 -0.39699999999999996          0.0000000000000000     
 -0.39399999999999996          0.0000000000000000     
 -0.39099999999999996          0.0000000000000000     
 -0.38799999999999996          0.0000000000000000     
 -0.38499999999999995          0.0000000000000000     
 -0.38199999999999995          0.0000000000000000     
 -0.37899999999999995          0.0000000000000000     
 -0.37599999999999995          0.0000000000000000     
 -0.37299999999999994          0.0000000000000000     
 -0.37000000000000000          0.0000000000000000     
 -0.36699999999999999          0.0000000000000000     
 -0.36399999999999999          0.0000000000000000     
 -0.36099999999999999          0.0000000000000000     
 -0.35799999999999998          0.0000000000000000     
 -0.35499999999999998          0.0000000000000000     
 -0.35199999999999998          0.0000000000000000     
 -0.34899999999999998          0.0000000000000000     
 -0.34599999999999997          0.0000000000000000     
 -0.34299999999999997          0.0000000000000000     
 -0.33999999999999997          0.0000000000000000     
 -0.33699999999999997          0.0000000000000000     
 -0.33399999999999996          0.0000000000000000     
 -0.33099999999999996          0.0000000000000000     
 -0.32799999999999996          0.0000000000000000     
 -0.32499999999999996          0.0000000000000000     
 -0.32199999999999995          0.0000000000000000     
 -0.31899999999999995          0.0000000000000000     
 -0.31599999999999995          0.0000000000000000     
 -0.31299999999999994          0.0000000000000000     
 -0.30999999999999994          0.0000000000000000     
 -0.30699999999999994          0.0000000000000000     
 -0.30399999999999994          0.0000000000000000     
 -0.30099999999999993          0.0000000000000000     
 -0.29799999999999993          0.0000000000000000     
 -0.29499999999999998          0.0000000000000000     
 -0.29199999999999998          0.0000000000000000     
 -0.28899999999999998          0.0000000000000000     
 -0.28599999999999998          0.0000000000000000     
 -0.28299999999999997          0.0000000000000000     
 -0.27999999999999997          0.0000000000000000     
 -0.27699999999999997          0.0000000000000000     
 -0.27399999999999997          0.0000000000000000     
 -0.27099999999999996          0.0000000000000000     
 -0.26799999999999996          0.0000000000000000     
 -0.26499999999999996          0.0000000000000000     
 -0.26199999999999996          0.0000000000000000     
 -0.25899999999999995          0.0000000000000000     
 -0.25599999999999995          0.0000000000000000     
 -0.25300000000000000          0.0000000000000000     
 -0.24999999999999997          0.0000000000000000     
 -0.24699999999999997          0.0000000000000000     
 -0.24399999999999997          0.0000000000000000     
 -0.24099999999999996          0.0000000000000000     
 -0.23799999999999996          0.0000000000000000     
 -0.23499999999999996          0.0000000000000000     
 -0.23199999999999996          0.0000000000000000     
 -0.22899999999999995          0.0000000000000000     
 -0.22599999999999995          0.0000000000000000     
 -0.22299999999999998          0.0000000000000000     
 -0.21999999999999997          0.0000000000000000     
 -0.21699999999999997          0.0000000000000000     
 -0.21399999999999997          0.0000000000000000     
 -0.21099999999999997          0.0000000000000000     
 -0.20799999999999996          0.0000000000000000     
 -0.20499999999999996          0.0000000000000000     
 -0.20199999999999996          0.0000000000000000     
 -0.19899999999999995          0.0000000000000000     
 -0.19599999999999995          0.0000000000000000     
 -0.19299999999999995          0.0000000000000000     
 -0.18999999999999997          0.0000000000000000     
 -0.18699999999999997          0.0000000000000000     
 -0.18399999999999997          0.0000000000000000     
 -0.18099999999999997          0.0000000000000000     
 -0.17799999999999996          0.0000000000000000     
 -0.17499999999999996          0.0000000000000000     
 -0.17199999999999996          0.0000000000000000     
 -0.16899999999999996          0.0000000000000000     
 -0.16599999999999995          0.0000000000000000     
 -0.16299999999999995          0.0000000000000000     
 -0.15999999999999998          0.0000000000000000     
 -0.15699999999999997          0.0000000000000000     
 -0.15399999999999997          0.0000000000000000     
 -0.15099999999999997          0.0000000000000000     
 -0.14799999999999996          0.0000000000000000     
 -0.14499999999999996          0.0000000000000000     
 -0.14199999999999996          0.0000000000000000     
 -0.13899999999999996          0.0000000000000000     
 -0.13599999999999995          0.0000000000000000     
 -0.13299999999999995          0.0000000000000000     
 -0.12999999999999995          0.0000000000000000     
 -0.12699999999999995          0.0000000000000000     
 -0.12399999999999994          0.0000000000000000     
 -0.12099999999999994          0.0000000000000000     
 -0.11799999999999994          0.0000000000000000     
 -0.11499999999999994          0.0000000000000000     
 -0.11199999999999993          0.0000000000000000     
 -0.10899999999999999          0.0000000000000000     
 -0.10599999999999998          0.0000000000000000     
 -0.10299999999999998          0.0000000000000000     
  -9.9999999999999978E-002     0.0000000000000000     
  -9.6999999999999975E-002     0.0000000000000000     
  -9.3999999999999972E-002     0.0000000000000000     
  -9.0999999999999970E-002     0.0000000000000000     
  -8.7999999999999967E-002     0.0000000000000000     
  -8.4999999999999964E-002     0.0000000000000000     
  -8.1999999999999962E-002     0.0000000000000000     
  -7.8999999999999959E-002     0.0000000000000000     
  -7.5999999999999956E-002     0.0000000000000000     
  -7.2999999999999954E-002     0.0000000000000000     
  -6.9999999999999951E-002     0.0000000000000000     
  -6.6999999999999948E-002     0.0000000000000000     
  -6.3999999999999946E-002     0.0000000000000000     
  -6.0999999999999943E-002     0.0000000000000000     
  -5.7999999999999940E-002     0.0000000000000000     
  -5.4999999999999938E-002     0.0000000000000000     
  -5.1999999999999935E-002     0.0000000000000000     
  -4.8999999999999932E-002     0.0000000000000000     
  -4.5999999999999985E-002     0.0000000000000000     
  -4.2999999999999983E-002     0.0000000000000000     
  -3.9999999999999980E-002     0.0000000000000000     
  -3.6999999999999977E-002     0.0000000000000000     
  -3.3999999999999975E-002     0.0000000000000000     
  -3.0999999999999972E-002     0.0000000000000000     
  -2.7999999999999969E-002     0.0000000000000000     
  -2.4999999999999967E-002     0.0000000000000000     
  -2.1999999999999964E-002     0.0000000000000000     
  -1.8999999999999961E-002     0.0000000000000000     
  -1.5999999999999959E-002     0.0000000000000000     
  -1.2999999999999956E-002     0.0000000000000000     
  -9.9999999999999534E-003     0.0000000000000000     
  -6.9999999999999507E-003     0.0000000000000000     
  -3.9999999999999480E-003     0.0000000000000000     
  -9.9999999999994538E-004     0.0000000000000000     
   2.0000000000000573E-003     0.0000000000000000     
   5.0000000000000600E-003     0.0000000000000000     
   8.0000000000000626E-003     0.0000000000000000     
   1.1000000000000065E-002     0.0000000000000000     
   1.4000000000000068E-002     0.0000000000000000     
   1.7000000000000015E-002     0.0000000000000000     
   2.0000000000000018E-002     0.0000000000000000     
   2.3000000000000020E-002     0.0000000000000000     
   2.6000000000000023E-002     0.0000000000000000     
   2.9000000000000026E-002     0.0000000000000000     
   3.2000000000000028E-002     0.0000000000000000     
   3.5000000000000031E-002     0.0000000000000000     
   3.8000000000000034E-002     0.0000000000000000     
   4.1000000000000036E-002     0.0000000000000000     
   4.4000000000000039E-002     0.0000000000000000     
   4.7000000000000042E-002     0.0000000000000000     
   5.0000000000000044E-002     0.0000000000000000     
   5.3000000000000047E-002     0.0000000000000000     
   5.6000000000000050E-002     0.0000000000000000     
   5.9000000000000052E-002     0.0000000000000000     
   6.2000000000000055E-002     0.0000000000000000     
   6.5000000000000058E-002     0.0000000000000000     
   6.8000000000000060E-002     0.0000000000000000     
   7.1000000000000063E-002     0.0000000000000000     
   7.4000000000000066E-002     0.0000000000000000     
   7.7000000000000068E-002     0.0000000000000000     
   8.0000000000000016E-002     0.0000000000000000     
   8.3000000000000018E-002     0.0000000000000000     
   8.6000000000000021E-002     0.0000000000000000     
   8.9000000000000024E-002     0.0000000000000000     
   9.2000000000000026E-002     0.0000000000000000     
   9.5000000000000029E-002     0.0000000000000000     
   9.8000000000000032E-002     0.0000000000000000     
  0.10100000000000003          0.0000000000000000     
  0.10400000000000004          0.0000000000000000     
  0.10700000000000004          0.0000000000000000     
  0.11000000000000004          0.0000000000000000     
  0.11300000000000004          0.0000000000000000     
  0.11600000000000005          0.0000000000000000     
  0.11900000000000005          0.0000000000000000     
  0.12200000000000005          0.0000000000000000     
  0.12500000000000006          0.0000000000000000     
  0.12800000000000006          0.0000000000000000     
  0.13100000000000006          0.0000000000000000     
  0.13400000000000006          7.1570742255265514E-043
  0.13700000000000007         -2.3707664069033309E-042
  0.14000000000000007         -3.1209339239729488E-042
  0.14300000000000007          3.4584088594879547E-042
  0.14600000000000007          1.1945648476715972E-041
  0.14900000000000008         -1.0506593168108047E-041
  0.15200000000000008         -2.5066977295701090E-041
  0.15500000000000008         -3.3240058460702647E-040
  0.15800000000000008          3.0700950118346227E-040
  0.16100000000000009          7.9262965822512528E-040
  0.16400000000000009         -3.1555221071930174E-040
  0.16700000000000009         -1.5464585206953622E-039
  0.17000000000000010         -5.3084134966701168E-040
  0.17300000000000010          1.3375582499522592E-038
  0.17600000000000010          3.3536004075976049E-038
  0.17899999999999999          3.9059247160146824E-038
  0.18200000000000000          8.5532718869666839E-040
  0.18500000000000000         -6.9882378480593395E-038
  0.18800000000000000         -1.5595028911598791E-037
  0.19100000000000000         -1.6898244467313615E-037
  0.19400000000000001         -1.6017990424520461E-038
  0.19700000000000001          3.2112202936420327E-037
  0.20000000000000001          6.9068481870327689E-037
  0.20300000000000001          7.5216392054981740E-037
  0.20600000000000002          1.2354162792331680E-037
  0.20900000000000002         -1.2888924813996614E-036
  0.21200000000000002         -2.9198965429645325E-036
  0.21500000000000002         -3.4397791740867602E-036
  0.21800000000000003         -1.2512995746064751E-036
  0.22100000000000003          4.3146362134122316E-036
  0.22400000000000003          1.1535753877846464E-035
  0.22700000000000004          1.5597443315963975E-035
  0.23000000000000004          9.9103589013382324E-036
  0.23300000000000004         -9.9206790807992889E-036
  0.23600000000000004         -4.0478165124499271E-035
  0.23900000000000005         -6.6398997691705205E-035
  0.24200000000000005         -6.2225749150245845E-035
  0.24500000000000005         -3.7202442368539099E-036
  0.24800000000000005          1.1229664598278168E-034
  0.25100000000000006          2.4758362486895061E-034
  0.25400000000000006          3.1617463310930324E-034
  0.25700000000000006          2.0778539415334039E-034
  0.26000000000000006         -1.5250653544947074E-034
  0.26300000000000007         -7.2198185963954738E-034
  0.26600000000000007         -1.2746740521704179E-033
  0.26900000000000007         -1.4094730557131807E-033
  0.27200000000000008         -6.8195489110422898E-034
  0.27500000000000008          1.1342346677753391E-033
  0.27800000000000008          3.7292158100227948E-033
  0.28100000000000008          6.0419629830314927E-033
  0.28400000000000009          6.3570534509768000E-033
  0.28700000000000009          2.8764659142698415E-033
  0.29000000000000009         -5.2424158593135912E-033
  0.29300000000000009         -1.6671948819633225E-032
  0.29600000000000010         -2.7108735829906654E-032
  0.29900000000000010         -2.9619766443322861E-032
  0.30200000000000010         -1.6724289925914170E-032
  0.30499999999999999          1.5782179120175364E-032
  0.30800000000000000          6.4196695947728205E-032
  0.31100000000000000          1.1343050448533399E-031
  0.31400000000000000          1.3727046900608493E-031
  0.31700000000000000          1.0464315569059535E-031
  0.32000000000000001         -7.5160664266149978E-033
  0.32300000000000001         -1.9712830909444668E-031
  0.32600000000000001         -4.2142540036442555E-031
  0.32900000000000001         -5.9157354955323817E-031
  0.33200000000000002         -5.8625947917437380E-031
  0.33500000000000002         -2.8924029420415789E-031
  0.33800000000000002          3.5236384055687674E-031
  0.34100000000000003          1.2636140733755879E-030
  0.34400000000000003          2.1968013161072527E-030
  0.34700000000000003          2.7374598755397859E-030
  0.35000000000000003          2.3880336972575844E-030
  0.35300000000000004          7.3703193204675858E-031
  0.35600000000000004         -2.3106928608785128E-030
  0.35900000000000004         -6.3059480229901074E-030
  0.36200000000000004         -1.0126040353618850E-029
  0.36500000000000005         -1.2052039215336634E-029
  0.36800000000000005         -1.0133247852927901E-029
  0.37100000000000005         -2.8472044337833442E-030
  0.37400000000000005          1.0048796911588790E-029
  0.37700000000000006          2.6706832171929871E-029
  0.38000000000000006          4.2752850035862055E-029
  0.38300000000000006          5.1587630667444520E-029
  0.38600000000000007          4.5689320566202865E-029
  0.38900000000000007          1.8942799185012167E-029
  0.39200000000000007         -3.0342538738077882E-029
  0.39500000000000007         -9.6478573266411469E-029
  0.39800000000000008         -1.6459962429157831E-028
  0.40100000000000008         -2.1122360145474933E-028
  0.40400000000000008         -2.0812394445628725E-028
  0.40700000000000008         -1.2976676074402295E-028
  0.41000000000000009          3.6530656980518825E-029
  0.41300000000000009          2.7986792881136674E-028
  0.41600000000000009          5.5777619467307843E-028
  0.41900000000000009          7.9489238938557060E-028
  0.42200000000000010          8.9178995549627353E-028
  0.42500000000000010          7.4574210370720195E-028
  0.42800000000000010          2.8217299118515217E-028
  0.43100000000000011         -5.0835374638942744E-028
  0.43400000000000000         -1.5367114162718304E-027
  0.43700000000000000         -2.5972407082819484E-027
  0.44000000000000000         -3.3774508079322887E-027
  0.44300000000000000         -3.5043994785204349E-027
  0.44600000000000001         -2.6295473311547446E-027
  0.44900000000000001         -5.4328659357495187E-028
  0.45200000000000001          2.7019232712650008E-027
  0.45500000000000002          6.6918768208040643E-027
  0.45800000000000002          1.0612630339390533E-026
  0.46100000000000002          1.3310110513761052E-026
  0.46400000000000002          1.3470105567793846E-026
  0.46700000000000003          9.9168554305802530E-027
  0.47000000000000003          1.9953753663441707E-027
  0.47300000000000003         -1.0033516922397918E-026
  0.47600000000000003         -2.4686758423604101E-026
  0.47900000000000004         -3.9156984631725254E-026
  0.48200000000000004         -4.9519845288168135E-026
  0.48500000000000004         -5.1314013220711618E-026
  0.48800000000000004         -4.0483903582973687E-026
  0.49100000000000005         -1.4579149454608545E-026
  0.49400000000000005          2.5997705667931525E-026
  0.49700000000000005          7.6990472199682750E-026
  0.50000000000000000          1.2987231951896004E-025
  0.50300000000000011          1.7232460686422832E-025
  0.50600000000000001          1.8981263639628747E-025
  0.50900000000000012          1.6826540544928165E-025
  0.51200000000000001          9.7606286339520741E-026
  0.51500000000000012         -2.4403862829887366E-026
  0.51800000000000002         -1.8880028550126092E-025
  0.52100000000000013         -3.7346351125427036E-025
  0.52400000000000002         -5.4350482969657487E-025
  0.52700000000000014         -6.5467632816497970E-025
  0.53000000000000003         -6.6003845185927024E-025
  0.53300000000000014         -5.1946677813455692E-025
  0.53600000000000003         -2.1083175663304268E-025
  0.53900000000000015          2.5904690260177248E-025
  0.54200000000000004          8.4609232454458545E-025
  0.54500000000000015          1.4659136862659257E-024
  0.54800000000000004          1.9982731284379167E-024
  0.55100000000000016          2.3004629982740301E-024
  0.55400000000000005          2.2295557923937688E-024
  0.55700000000000016          1.6716545462532414E-024
  0.56000000000000005          5.7433690355269282E-025
  0.56299999999999994         -1.0232571741006665E-024
  0.56600000000000006         -2.9693438981633939E-024
  0.56899999999999995         -4.9941696956507468E-024
  0.57200000000000006         -6.7260260612354311E-024
  0.57499999999999996         -7.7316418465532038E-024
  0.57800000000000007         -7.5801791434709681E-024
  0.58099999999999996         -5.9254743241908641E-024
  0.58400000000000007         -2.5962932275287972E-024
  0.58699999999999997          2.3197487407354078E-024
  0.59000000000000008          8.4156438827707644E-024
  0.59299999999999997          1.4945036089185384E-023
  0.59600000000000009          2.0857378465264386E-023
  0.59899999999999998          2.4896744590343810E-023
  0.60200000000000009          2.5763961013545302E-023
  0.60500000000000020          2.2330840264384248E-023
  0.60800000000000010          1.3883589377351051E-023
  0.61100000000000021          3.6188963498581841E-025
  0.61400000000000010         -1.7447293935173555E-023
  0.61700000000000021         -3.7804941526370436E-023
  0.62000000000000011         -5.8044008984091217E-023
  0.62300000000000022         -7.4751138795069954E-023
  0.62600000000000011         -8.4116885697690172E-023
  0.62900000000000000         -8.2441435011595586E-023
  0.63200000000000012         -6.6755431980976866E-023
  0.63500000000000001         -3.5488526082432909E-023
  0.63800000000000012          1.0905363948551218E-023
  0.64100000000000001          6.9471750772034448E-023
  0.64400000000000013          1.3453739394003648E-022
  0.64700000000000002          1.9784619960548950E-022
  0.65000000000000013          2.4911714408691142E-022
  0.65300000000000002          2.7704627329800510E-022
  0.65600000000000014          2.7071759493716301E-022
  0.65900000000000003          2.2131908323233664E-022
  0.66200000000000014          1.2399490225416318E-022
  0.66500000000000004         -2.0396131259082201E-023
  0.66800000000000015         -2.0388684525601864E-022
  0.67100000000000004         -4.1065791099750265E-022
  0.67400000000000015         -6.1720906382014946E-022
  0.67700000000000005         -7.9364788050841134E-022
  0.68000000000000016         -9.0619852693199438E-022
  0.68300000000000005         -9.2089122142496883E-022
  0.68600000000000017         -8.0822549180877420E-022
  0.68900000000000006         -5.4842276169144201E-022
  0.69200000000000017         -1.3670881410519849E-022
  0.69500000000000006          4.1206998351296713E-022
  0.69800000000000018          1.0602779003913787E-021
  0.70100000000000007          1.7465521158521631E-021
  0.70400000000000018          2.3877736131954203E-021
  0.70700000000000007          2.8844229699818560E-021
  0.71000000000000019          3.1294691206374077E-021
  0.71300000000000008          3.0205206915130255E-021
  0.71600000000000019          2.4744937135587903E-021
  0.71900000000000008          1.4435268446014251E-021
  0.72200000000000020         -6.9565907485580349E-023
  0.72500000000000009         -1.9984069160982091E-021
  0.72800000000000020         -4.2049896430967382E-021
  0.73100000000000009         -6.4786720290731166E-021
  0.73400000000000021         -8.5440914976832902E-021
  0.73700000000000010         -1.0079241486847798E-020
  0.74000000000000021         -1.0743965792745927E-020
  0.74300000000000010         -1.0217914249636845E-020
  0.74600000000000022         -8.2456130983912157E-021
  0.74900000000000011         -4.6848909461704294E-021
  0.75200000000000022          4.4645041568429377E-022
  0.75500000000000012          6.9318083641030639E-021
  0.75800000000000001          1.4331347531789547E-020
  0.76100000000000012          2.1978505909861591E-020
  0.76400000000000001          2.9002791511567946E-020
  0.76700000000000013          3.4382683106267023E-020
  0.77000000000000002          3.7029538831930219E-020
  0.77300000000000013          3.5900163171608344E-020
  0.77600000000000002          3.0131797163482494E-020
  0.77900000000000014          1.9189125214461267E-020
  0.78200000000000003          3.0092615713222710E-021
  0.78500000000000014         -1.7872508866107518E-020
  0.78800000000000003         -4.2235136946712828E-020
  0.79100000000000015         -6.8141553803359434E-020
  0.79400000000000004         -9.2982524184368871E-020
  0.79700000000000015         -1.1360758502521680E-019
  0.80000000000000004         -1.2654859646718702E-019
  0.80300000000000016         -1.2833299353192324E-019
  0.80600000000000005         -1.1587330547531172E-019
  0.80900000000000016         -8.6907363542866717E-020
  0.81200000000000006         -4.0453212274903379E-020
  0.81500000000000017          2.2767779924302976E-020
  0.81800000000000006          9.9993033308408122E-020
  0.82100000000000017          1.8622262074579527E-019
  0.82400000000000007          2.7421899772267790E-019
  0.82700000000000018          3.5474821079046302E-019
  0.83000000000000007          4.1709275474033485E-019
  0.83300000000000018          4.4984530835964345E-019
  0.83600000000000008          4.4196281625672838E-019
  0.83900000000000019          3.8403193356388679E-019
  0.84200000000000008          2.6966116816006391E-019
  0.84500000000000020          9.6883162172048563E-020
  0.84800000000000009         -1.3057526519944707E-019
  0.85100000000000020         -4.0231800612980899E-019
  0.85400000000000009         -7.0076567625451745E-019
  0.85700000000000021         -1.0012620963478979E-018
  0.86000000000000010         -1.2729317486807860E-018
  0.86300000000000021         -1.4803722444692393E-018
  0.86600000000000010         -1.5861979780592548E-018
  0.86900000000000022         -1.5543744674027857E-018
  0.87200000000000011         -1.3541909334909199E-018
  0.87500000000000022         -9.6461073982431139E-019
  0.87800000000000011         -3.7866066594155552E-019
  0.88100000000000001          3.9256763235443192E-019
  0.88400000000000012          1.3167876283591065E-018
  0.88700000000000001          2.3387571242391588E-018
  0.89000000000000012          3.3803660404105933E-018
  0.89300000000000002          4.3429746071653365E-018
  0.89600000000000013          5.1122752041746974E-018
  0.89900000000000002          5.5657792296858531E-018
  0.90200000000000014          5.5827760898861922E-018
  0.90500000000000003          5.0563827166040726E-018
  0.90800000000000014          3.9069771574121559E-018
  0.91100000000000003          2.0960724304599001E-018
  0.91400000000000015         -3.6058294292892465E-019
  0.91700000000000004         -3.3820897443465065E-018
  0.92000000000000015         -6.8151276319987152E-018
  0.92300000000000004         -1.0431834302045179E-017
  0.92600000000000016         -1.3934139449434332E-017
  0.92900000000000005         -1.6965532371932073E-017
  0.93200000000000016         -1.9130840079059291E-017
  0.93500000000000005         -2.0023899719178978E-017
  0.93800000000000017         -1.9262347561716006E-017
  0.94100000000000006         -1.6527885816242892E-017
  0.94400000000000017         -1.1609631558902909E-017
  0.94700000000000006         -4.4472454408894165E-018
  0.95000000000000018          4.8299663887145176E-018
  0.95300000000000007          1.5872387008521865E-017
  0.95600000000000018          2.8092293320990326E-017
  0.95900000000000007          4.0663276428320658E-017
  0.96200000000000019          5.2540543803807980E-017
  0.96500000000000008          6.2504820069057204E-017
  0.96800000000000019          6.9230882412176196E-017
  0.97100000000000009          7.1380085083696377E-017
  0.97400000000000020          6.7713868075594296E-017
  0.97700000000000009          5.7223038550931225E-017
  0.98000000000000020          3.9264901045270708E-017
  0.98300000000000010          1.3698359537213578E-017
  0.98600000000000021         -1.8994894732421803E-017
  0.98900000000000010         -5.7616280336476975E-017
  0.99200000000000021         -1.0019673910061117E-016
  0.99500000000000011         -1.4399633445796114E-016
  0.99800000000000022         -1.8556848993958472E-016
   1.0010000000000001         -2.2089631629681667E-016
   1.0040000000000002         -2.4560470718644522E-016
   1.0070000000000001         -2.5524677183642238E-016
   1.0100000000000000         -2.4565518623230729E-016
   1.0130000000000001         -2.1334458247361119E-016
   1.0160000000000000         -1.5594143312721252E-016
   1.0190000000000001         -7.2613036568324215E-017
   1.0220000000000000          3.5539311987804534E-017
   1.0250000000000001          1.6516105123216599E-016
   1.0280000000000000          3.1044035673223309E-016
   1.0310000000000001          4.6305733413165816E-016
   1.0340000000000000          6.1232240861687836E-016
   1.0370000000000001          7.4552847992369061E-016
   1.0400000000000000          8.4853585235556463E-016
   1.0430000000000001          9.0658448866900747E-016
   1.0460000000000000          9.0532274360111136E-016
   1.0490000000000002          8.3200881074191284E-016
   1.0520000000000000          6.7683191022227512E-016
   1.0550000000000002          4.3427292782530841E-016
   1.0580000000000001          1.0440964987908884E-016
   1.0610000000000002         -3.0594508367599525E-016
   1.0640000000000001         -7.8238576656174151E-016
   1.0670000000000002         -1.3024632607358667E-015
   1.0700000000000001         -1.8357457872380570E-015
   1.0730000000000002         -2.3444905681486605E-015
   1.0760000000000001         -2.7849916593231877E-015
   1.0790000000000002         -3.1096347617520020E-015
   1.0820000000000001         -3.2696450193755897E-015
   1.0850000000000002         -3.2184520318317300E-015
   1.0880000000000001         -2.9155556697285884E-015
   1.0910000000000002         -2.3306982243724151E-015
   1.0940000000000001         -1.4481022979529180E-015
   1.0970000000000002         -2.7048423795755957E-016
