 -0.39999999999999997          0.0000000000000000     
 -0.39699999999999996          0.0000000000000000     
 -0.39399999999999996          0.0000000000000000     
 -0.39099999999999996          0.0000000000000000     
 -0.38799999999999996          0.0000000000000000     
 -0.38499999999999995          0.0000000000000000     
 -0.38199999999999995          0.0000000000000000     
 -0.37899999999999995          0.0000000000000000     
 -0.37599999999999995          0.0000000000000000     
 -0.37299999999999994          0.0000000000000000     
 -0.37000000000000000          0.0000000000000000     
 -0.36699999999999999          0.0000000000000000     
 -0.36399999999999999          0.0000000000000000     
 -0.36099999999999999          0.0000000000000000     
 -0.35799999999999998          0.0000000000000000     
 -0.35499999999999998          0.0000000000000000     
 -0.35199999999999998          0.0000000000000000     
 -0.34899999999999998          0.0000000000000000     
 -0.34599999999999997          0.0000000000000000     
 -0.34299999999999997          0.0000000000000000     
 -0.33999999999999997          0.0000000000000000     
 -0.33699999999999997          0.0000000000000000     
 -0.33399999999999996          0.0000000000000000     
 -0.33099999999999996          0.0000000000000000     
 -0.32799999999999996          0.0000000000000000     
 -0.32499999999999996          0.0000000000000000     
 -0.32199999999999995          0.0000000000000000     
 -0.31899999999999995          0.0000000000000000     
 -0.31599999999999995          0.0000000000000000     
 -0.31299999999999994          0.0000000000000000     
 -0.30999999999999994          0.0000000000000000     
 -0.30699999999999994          0.0000000000000000     
 -0.30399999999999994          0.0000000000000000     
 -0.30099999999999993          0.0000000000000000     
 -0.29799999999999993          0.0000000000000000     
 -0.29499999999999998          0.0000000000000000     
 -0.29199999999999998          0.0000000000000000     
 -0.28899999999999998          0.0000000000000000     
 -0.28599999999999998          0.0000000000000000     
 -0.28299999999999997          0.0000000000000000     
 -0.27999999999999997          0.0000000000000000     
 -0.27699999999999997          0.0000000000000000     
 -0.27399999999999997          0.0000000000000000     
 -0.27099999999999996          0.0000000000000000     
 -0.26799999999999996          3.1703302535133333E-042
 -0.26499999999999996         -8.0743518875663473E-042
 -0.26199999999999996         -1.7702829927488364E-042
 -0.25899999999999995         -8.0014190358304471E-041
 -0.25599999999999995         -8.5423762359962817E-041
 -0.25300000000000000          2.2133434648919798E-040
 -0.24999999999999997         -1.6459140406544468E-039
 -0.24699999999999997          1.0731795864368622E-040
 -0.24399999999999997          9.2772906058292303E-039
 -0.24099999999999996          2.2353584031989042E-038
 -0.23799999999999996         -6.6861596551737457E-038
 -0.23499999999999996         -6.8875513989843460E-038
 -0.23199999999999996          3.5526839521838102E-037
 -0.22899999999999995          1.4127139542889640E-037
 -0.22599999999999995         -1.6318870326234924E-036
 -0.22299999999999998          9.5944213005545253E-039
 -0.21999999999999997          6.7346808549322245E-036
 -0.21699999999999997         -1.8643338347628168E-036
 -0.21399999999999997         -2.5561947816164228E-035
 -0.21099999999999997          1.1408777086283245E-035
 -0.20799999999999996          9.0585561763185485E-035
 -0.20499999999999996         -4.7284677179717760E-035
 -0.20199999999999996         -3.0220179785489092E-034
 -0.19899999999999995          1.5234910455098107E-034
 -0.19599999999999995          9.4997377877005478E-034
 -0.19299999999999995         -3.7428594031716790E-034
 -0.18999999999999997         -2.7921402226942751E-033
 -0.18699999999999997          5.4649427035526061E-034
 -0.18399999999999997          7.5288324852826062E-033
 -0.18099999999999997          6.7408025622300133E-034
 -0.17799999999999996         -1.7943730885665636E-032
 -0.17499999999999996         -8.6505929242186963E-033
 -0.17199999999999996          3.4847299832018303E-032
 -0.16899999999999996          3.7998777918298779E-032
 -0.16599999999999995         -4.1749563677910064E-032
 -0.16299999999999995         -1.1215187198466264E-031
 -0.15999999999999998         -3.9922222122464212E-032
 -0.15699999999999997          2.1527563587893696E-031
 -0.15399999999999997          4.2464899198894376E-031
 -0.15099999999999997         -7.8776866087523120E-032
 -0.14799999999999996         -1.4196541355382322E-030
 -0.14499999999999996         -1.3486368871084820E-030
 -0.14199999999999996          2.6581736006467069E-030
 -0.13899999999999996          6.3972223519740424E-030
 -0.13599999999999995         -3.5127479915860329E-031
 -0.13299999999999995         -1.6512725466894119E-029
 -0.12999999999999995         -1.7477041982707378E-029
 -0.12699999999999995          2.0109702378251663E-029
 -0.12399999999999994          6.7951841020811352E-029
 -0.12099999999999994          3.6206974148895210E-029
 -0.11799999999999994         -1.2641730797730332E-028
 -0.11499999999999994         -2.6058803350681716E-028
 -0.11199999999999993         -1.6466636985749884E-029
 -0.10899999999999999          6.5079708227405487E-028
 -0.10599999999999998          9.0009845293548665E-028
 -0.10299999999999998         -4.5160411886218038E-028
  -9.9999999999999978E-002    -2.8533766688416198E-027
  -9.6999999999999975E-002    -2.7442349585469090E-027
  -9.3999999999999972E-002     3.2750854818637289E-027
  -9.0999999999999970E-002     1.1328140402039449E-026
  -8.7999999999999967E-002     7.9153287721545151E-027
  -8.4999999999999964E-002    -1.6594520320825936E-026
  -8.1999999999999962E-002    -4.3249959768876810E-026
  -7.8999999999999959E-002    -2.1887713971202899E-026
  -7.5999999999999956E-002     7.3472470229557530E-026
  -7.2999999999999954E-002     1.6046760881114320E-025
  -6.9999999999999951E-002     5.9378074477556486E-026
  -6.6999999999999948E-002    -2.9660314535226117E-025
  -6.3999999999999946E-002    -5.8528899775831842E-025
  -6.0999999999999943E-002    -1.7621614474334955E-025
  -5.7999999999999940E-002     1.1197392327605637E-024
  -5.4999999999999938E-002     2.1253442760425821E-024
  -5.1999999999999935E-002     6.3069737728763993E-025
  -4.8999999999999932E-002    -4.0022859258315407E-024
  -4.5999999999999985E-002    -7.6853110178659301E-024
  -4.2999999999999983E-002    -2.7127894871658346E-024
  -3.9999999999999980E-002     1.3496083969273851E-023
  -3.6999999999999977E-002     2.7544730529192307E-023
  -3.3999999999999975E-002     1.2800394424448893E-023
  -3.0999999999999972E-002    -4.2401714542119947E-023
  -2.7999999999999969E-002    -9.7034094921280199E-023
  -2.4999999999999967E-002    -6.0414661237916933E-023
  -2.1999999999999964E-002     1.2065350411134822E-022
  -1.8999999999999961E-002     3.3146625903828052E-022
  -1.5999999999999959E-002     2.7199008528613904E-022
  -1.2999999999999956E-002    -2.9004993335628067E-022
  -9.9999999999999534E-003    -1.0787605788311633E-021
  -6.9999999999999507E-003    -1.1453633515440751E-021
  -3.9999999999999480E-003     4.6137476548402340E-022
  -9.9999999999994538E-004     3.2658408294910082E-021
   2.0000000000000573E-003     4.4622836019804411E-021
   5.0000000000000600E-003     4.3971274798709080E-022
   8.0000000000000626E-003    -8.8502985237391620E-021
   1.1000000000000065E-002    -1.5909353325491319E-020
   1.4000000000000068E-002    -8.1610317693304937E-021
   1.7000000000000015E-002     1.9806001882211386E-020
   2.0000000000000018E-002     5.1048729906958821E-020
   2.3000000000000020E-002     4.5966268203284739E-020
   2.6000000000000023E-002    -2.7502487320036480E-020
   2.9000000000000026E-002    -1.4291253591399732E-019
   3.2000000000000028E-002    -1.9047914421236785E-019
   3.5000000000000031E-002    -3.6821942077072514E-020
   3.8000000000000034E-002     3.2544146178217752E-019
   4.1000000000000036E-002     6.4304542339572528E-019
   4.4000000000000039E-002     4.6719219570314959E-019
   4.7000000000000042E-002    -4.7413370354863370E-019
   5.0000000000000044E-002    -1.7697741328343642E-018
   5.3000000000000047E-002    -2.1793832171077114E-018
   5.6000000000000050E-002    -3.5241835616044286E-019
   5.9000000000000052E-002     3.6650901821482304E-018
   6.2000000000000055E-002     7.2069141121677938E-018
   6.5000000000000058E-002     5.7140069606602850E-018
   6.8000000000000060E-002    -3.7324995139147270E-018
   7.1000000000000063E-002    -1.7671530755988111E-017
   7.4000000000000066E-002    -2.4583958788450294E-017
   7.7000000000000068E-002    -1.0656618844170792E-017
   8.0000000000000016E-002     2.7190341599234939E-017
   8.3000000000000018E-002     6.9104813415879196E-017
   8.6000000000000021E-002     7.4437386652863053E-017
   8.9000000000000024E-002     7.1259280599547771E-018
   9.2000000000000026E-002    -1.2388163210834314E-016
   9.5000000000000029E-002    -2.3859957506003305E-016
   9.8000000000000032E-002    -2.1076566440385531E-016
  0.10100000000000003          4.4123648405167524E-017
  0.10400000000000004          4.5727756816540620E-016
  0.10700000000000004          7.6060038792342948E-016
  0.11000000000000004          5.9327813378981242E-016
  0.11300000000000004         -2.3527527668168610E-016
  0.11600000000000005         -1.4606542142509855E-015
  0.11900000000000005         -2.2935516228520150E-015
  0.12200000000000005         -1.7567091001626161E-015
  0.12500000000000006          6.1397588791583651E-016
  0.12800000000000006          4.0750447146251262E-015
  0.13100000000000006          6.5555423933083442E-015
  0.13400000000000006          5.5178127661389810E-015
  0.13700000000000007         -3.5827855398657666E-016
  0.14000000000000007         -9.5340744568153779E-015
  0.14300000000000007         -1.7251853830438192E-014
  0.14600000000000007         -1.7305263048688803E-014
  0.14900000000000008         -5.6242802361677704E-015
  0.15200000000000008          1.6033031843287315E-014
  0.15500000000000008          3.8701995437372862E-014
  0.15800000000000008          4.8881567636116271E-014
  0.16100000000000009          3.4949414250001365E-014
  0.16400000000000009         -5.4027206675004298E-015
  0.16700000000000009         -6.0771817085386478E-014
  0.17000000000000010         -1.0791804989475694E-013
  0.17300000000000010         -1.2026968191191243E-013
  0.17600000000000010         -7.9906445334048754E-014
  0.17899999999999999          1.2309638757183270E-014
  0.18200000000000000          1.3330880827808316E-013
  0.18500000000000000          2.4301732932451153E-013
  0.18800000000000000          2.9637360982434168E-013
  0.19100000000000000          2.5780901052919284E-013
  0.19400000000000001          1.1362099492044216E-013
  0.19700000000000001         -1.2074039641969304E-013
  0.20000000000000001         -3.9955217830111646E-013
  0.20300000000000001         -6.5202743330537795E-013
  0.20600000000000002         -7.9405802305363940E-013
  0.20900000000000002         -7.4649133735222593E-013
  0.21200000000000002         -4.5823329028059150E-013
  0.21500000000000002          7.0633183427125379E-014
  0.21800000000000003          7.7327397415199252E-013
  0.22100000000000003          1.5156818850565518E-012
  0.22400000000000003          2.1153247332588623E-012
  0.22700000000000004          2.3766320552989155E-012
  0.23000000000000004          2.1354975015165667E-012
  0.23300000000000004          1.3026001934617922E-012
  0.23600000000000004         -1.0331526443980679E-013
  0.23900000000000005         -1.9379244412090545E-012
  0.24200000000000005         -3.9329354802248114E-012
  0.24500000000000005         -5.7194581213799609E-012
  0.24800000000000005         -6.8750847889696348E-012
  0.25100000000000006         -6.9933472365393722E-012
  0.25400000000000006         -5.7673424486012696E-012
  0.25700000000000006         -3.0714446671739040E-012
  0.26000000000000006          9.7910542104534768E-013
  0.26300000000000007          6.0075264047589743E-012
  0.26600000000000007          1.1400144581283359E-011
  0.26900000000000007          1.6370447558698556E-011
  0.27200000000000008          2.0049033922198092E-011
  0.27500000000000008          2.1585943650394232E-011
  0.27800000000000008          2.0257410333290818E-011
  0.28100000000000008          1.5573576281483789E-011
  0.28400000000000009          7.3824367621276382E-012
  0.28700000000000009         -4.0420471923668796E-012
  0.29000000000000009         -1.7947344879666772E-011
  0.29300000000000009         -3.3106019854343484E-011
  0.29600000000000010         -4.7888165835502110E-011
  0.29900000000000010         -6.0400678493910032E-011
  0.30200000000000010         -6.8678104058783312E-011
  0.30499999999999999         -7.0902758807704268E-011
  0.30800000000000000         -6.5632221036425796E-011
  0.31100000000000000         -5.2015074783446157E-011
  0.31400000000000000         -2.9976952336693549E-011
  0.31700000000000000         -3.5737868500190192E-013
  0.32000000000000001          3.5022858515405326E-011
  0.32300000000000001          7.3378641331021441E-011
  0.32600000000000001          1.1106409051044069E-010
  0.32900000000000001          1.4375017139181097E-010
  0.33200000000000002          1.6665238794736014E-010
  0.33500000000000002          1.7477995466887536E-010
  0.33800000000000002          1.6318318629785390E-010
  0.34100000000000003          1.2717884156602741E-010
  0.34400000000000003          6.2536382558599530E-011
  0.34700000000000003         -3.4393063175605314E-011
  0.35000000000000003         -1.6662348079501092E-010
  0.35300000000000004         -3.3657657794146587E-010
  0.35600000000000004         -5.4623239325684352E-010
  0.35900000000000004         -7.9738379185714716E-010
  0.36200000000000004         -1.0919860529308730E-009
  0.36500000000000005         -1.4325980262803980E-009
  0.36800000000000005         -1.8228747745990443E-009
  0.37100000000000005         -2.2681263317025760E-009
  0.37400000000000005         -2.7758758887287312E-009
  0.37700000000000006         -3.3564198747840879E-009
  0.38000000000000006         -4.0233729991278328E-009
  0.38300000000000006         -4.7941254768765532E-009
  0.38600000000000007         -5.6902895317330906E-009
  0.38900000000000007         -6.7380972452176488E-009
  0.39200000000000007         -7.9687430619248657E-009
  0.39500000000000007         -9.4187828592855864E-009
  0.39800000000000008         -1.1130493751138484E-008
  0.40100000000000008         -1.3152298323361377E-008
  0.40400000000000008         -1.5539281234676885E-008
  0.40700000000000008         -1.8353709678030234E-008
  0.41000000000000009         -2.1665897859587273E-008
  0.41300000000000009         -2.5554920338155998E-008
  0.41600000000000009         -3.0109767324416171E-008
  0.41900000000000009         -3.5430469143863710E-008
  0.42200000000000010         -4.1629597689588816E-008
  0.42500000000000010         -4.8833620470997432E-008
  0.42800000000000010         -5.7184631015285024E-008
  0.43100000000000011         -6.6842304878081577E-008
  0.43400000000000000         -7.7985691068242809E-008
  0.43700000000000000         -9.0815283465353989E-008
  0.44000000000000000         -1.0555542688944699E-007
  0.44300000000000000         -1.2245622110513474E-007
  0.44600000000000001         -1.4179574182121609E-007
  0.44900000000000001         -1.6388250939402041E-007
  0.45200000000000001         -1.8905719643226163E-007
  0.45500000000000002         -2.1769519959032164E-007
  0.45800000000000002         -2.5020786788452152E-007
  0.46100000000000002         -2.8704480792089742E-007
  0.46400000000000002         -3.2869542241754276E-007
  0.46700000000000003         -3.7568991726902366E-007
  0.47000000000000003         -4.2860092616968789E-007
  0.47300000000000003         -4.8804457763195027E-007
  0.47600000000000003         -5.5467950693463081E-007
  0.47900000000000004         -6.2920932364802688E-007
  0.48200000000000004         -7.1237962567031079E-007
  0.48500000000000004         -8.0497935484994874E-007
  0.48800000000000004         -9.0783746982028596E-007
  0.49100000000000005         -1.0218217030056842E-006
  0.49400000000000005         -1.1478334155625182E-006
  0.49700000000000005         -1.2868045991241305E-006
  0.50000000000000000         -1.4396922543831206E-006
  0.50300000000000011         -1.6074730449116839E-006
  0.50600000000000001         -1.7911309777767736E-006
  0.50900000000000012         -1.9916533495153374E-006
  0.51200000000000001         -2.2100183708356500E-006
  0.51500000000000012         -2.4471781088776962E-006
  0.51800000000000002         -2.7040541259627965E-006
  0.52100000000000013         -2.9815138668285976E-006
  0.52400000000000002         -3.2803601431072948E-006
  0.52700000000000014         -3.6013056982025686E-006
  0.53000000000000003         -3.9449563665873308E-006
  0.53300000000000014         -4.3117988581791236E-006
  0.53600000000000003         -4.7021564904669930E-006
  0.53900000000000015         -5.1161964284920723E-006
  0.54200000000000004         -5.5538672150751323E-006
  0.54500000000000015         -6.0149134930852728E-006
  0.54800000000000004         -6.4988221930002887E-006
  0.55100000000000016         -7.0048058848766190E-006
  0.55400000000000005         -7.5317830079551164E-006
  0.55700000000000016         -8.0783443536757176E-006
  0.56000000000000005         -8.6427470199964926E-006
  0.56299999999999994         -9.2228574815484679E-006
  0.56600000000000006         -9.8161863186170176E-006
  0.56899999999999995         -1.0419823476278108E-005
  0.57200000000000006         -1.1030441161846647E-005
  0.57499999999999996         -1.1644295388095956E-005
  0.57800000000000007         -1.2257207556108486E-005
  0.58099999999999996         -1.2864574382010698E-005
  0.58400000000000007         -1.3461345423607569E-005
  0.58699999999999997         -1.4042070753783609E-005
  0.59000000000000008         -1.4600903086019871E-005
  0.59299999999999997         -1.5131622707543959E-005
  0.59600000000000009         -1.5627662286981778E-005
  0.59899999999999998         -1.6082181789173388E-005
  0.60200000000000009         -1.6488046159745692E-005
  0.60500000000000020         -1.6837920666921757E-005
  0.60800000000000010         -1.7124336387873961E-005
  0.61100000000000021         -1.7339738434738207E-005
  0.61400000000000010         -1.7476576693804188E-005
  0.61700000000000021         -1.7527421671359183E-005
  0.62000000000000011         -1.7484960495636149E-005
  0.62300000000000022         -1.7342186475997147E-005
  0.62600000000000011         -1.7092421975027100E-005
  0.62900000000000000         -1.6729455955769992E-005
  0.63200000000000012         -1.6247657082886713E-005
  0.63500000000000001         -1.5642039721742023E-005
  0.63800000000000012         -1.4908431986994545E-005
  0.64100000000000001         -1.4043496330372697E-005
  0.64400000000000013         -1.3044840342414191E-005
  0.64700000000000002         -1.1911151068975915E-005
  0.65000000000000013         -1.0642241558006895E-005
  0.65300000000000002         -9.2391865509646453E-006
  0.65600000000000014         -7.7042881975876710E-006
  0.65900000000000003         -6.0411840801292078E-006
  0.66200000000000014         -4.2549329444529701E-006
  0.66500000000000004         -2.3519201666247791E-006
  0.66800000000000015         -3.3997575847597160E-007
  0.67100000000000004          1.7716782132913209E-006
  0.67400000000000015          3.9724517366504264E-006
  0.67700000000000005          6.2504446879445437E-006
  0.68000000000000016          8.5925093714997644E-006
  0.68300000000000005          1.0984274363287428E-005
  0.68600000000000017          1.3410312562116413E-005
  0.68900000000000006          1.5854239984374052E-005
  0.69200000000000017          1.8298825222651870E-005
  0.69500000000000006          2.0726169773607534E-005
  0.69800000000000018          2.3117920064473708E-005
  0.70100000000000007          2.5455323212792294E-005
  0.70400000000000018          2.7719507571138182E-005
  0.70700000000000007          2.9891640999114196E-005
  0.71000000000000019          3.1953139767530588E-005
  0.71300000000000008          3.3885884872719591E-005
  0.71600000000000019          3.5672444267712787E-005
  0.71900000000000008          3.7296253370266266E-005
  0.72200000000000020          3.8741803278119803E-005
  0.72500000000000009          3.9994840809436443E-005
  0.72800000000000020          4.1042554950509338E-005
  0.73100000000000009          4.1873699761830204E-005
  0.73400000000000021          4.2478802399312930E-005
  0.73700000000000010          4.2850267970367573E-005
  0.74000000000000021          4.2982529843277335E-005
  0.74300000000000010          4.2872049047604512E-005
  0.74600000000000022          4.2517437951637263E-005
  0.74900000000000011          4.1919483764060165E-005
  0.75200000000000022          4.1081141207420623E-005
  0.75500000000000012          4.0007547411987903E-005
  0.75800000000000001          3.8705954047396426E-005
  0.76100000000000012          3.7185684532405651E-005
  0.76400000000000001          3.5458035299252479E-005
  0.76700000000000013          3.3536114700688453E-005
  0.77000000000000002          3.1434741178305793E-005
  0.77300000000000013          2.9170282997747646E-005
  0.77600000000000002          2.6760491886458612E-005
  0.77900000000000014          2.4224289130163574E-005
  0.78200000000000003          2.1581559043764971E-005
  0.78500000000000014          1.8852894816503678E-005
  0.78800000000000003          1.6059468028779107E-005
  0.79100000000000015          1.3222638407250964E-005
  0.79400000000000004          1.0363912725907456E-005
  0.79700000000000015          7.5046680500495940E-006
  0.80000000000000004          4.6658535996445239E-006
  0.80300000000000016          1.8677451696531833E-006
  0.80600000000000005         -8.7002056244262721E-007
  0.80900000000000016         -3.5289407489028137E-006
  0.81200000000000006         -6.0915832450623157E-006
  0.81500000000000017         -8.5418481267544874E-006
  0.81800000000000006         -1.0865054969328509E-005
  0.82100000000000017         -1.3048138919225442E-005
  0.82400000000000007         -1.5079619807686345E-005
  0.82700000000000018         -1.6949782001432071E-005
  0.83000000000000007         -1.8650616313737905E-005
  0.83300000000000018         -2.0175860377581130E-005
  0.83600000000000008         -2.1521186066601857E-005
  0.83900000000000019         -2.2683903024890974E-005
  0.84200000000000008         -2.3663114782459183E-005
  0.84500000000000020         -2.4459583665529872E-005
  0.84800000000000009         -2.5075626780005589E-005
  0.85100000000000020         -2.5515005419103550E-005
  0.85400000000000009         -2.5782944009838878E-005
  0.85700000000000021         -2.5885917390760411E-005
  0.86000000000000010         -2.5831546558141374E-005
  0.86300000000000021         -2.5628465733832209E-005
  0.86600000000000010         -2.5286157795982422E-005
  0.86900000000000022         -2.4814806008530762E-005
  0.87200000000000011         -2.4225212735168338E-005
  0.87500000000000022         -2.3528546586139026E-005
  0.87800000000000011         -2.2736334481235664E-005
  0.88100000000000001         -2.1860245175688749E-005
  0.88400000000000012         -2.0911977197880448E-005
  0.88700000000000001         -1.9903074156003734E-005
  0.89000000000000012         -1.8844920161230622E-005
  0.89300000000000002         -1.7748600478895513E-005
  0.89600000000000013         -1.6624803148656619E-005
  0.89900000000000002         -1.5483697182861044E-005
  0.90200000000000014         -1.4334916674953973E-005
  0.90500000000000003         -1.3187444475450561E-005
  0.90800000000000014         -1.2049579758420916E-005
  0.91100000000000003         -1.0928925301111910E-005
  0.91400000000000015         -9.8323856788083058E-006
  0.91700000000000004         -8.7661308797115624E-006
  0.92000000000000015         -7.7355561323104535E-006
  0.92300000000000004         -6.7453048715984762E-006
  0.92600000000000016         -5.7993013107638996E-006
  0.92900000000000005         -4.9007561057664039E-006
  0.93200000000000016         -4.0521672684896539E-006
  0.93500000000000005         -3.2553899398840337E-006
  0.93800000000000017         -2.5116847202714068E-006
  0.94100000000000006         -1.8217030509603104E-006
  0.94400000000000017         -1.1855609295886104E-006
  0.94700000000000006         -6.0292090575443944E-007
  0.95000000000000018         -7.3019939338177631E-008
  0.95300000000000007          4.0531711430070378E-007
  0.95600000000000018          8.3363567137208703E-007
  0.95900000000000007          1.2137285315962944E-006
  0.96200000000000019          1.5476361019525955E-006
  0.96500000000000008          1.8376388842608631E-006
  0.96800000000000019          2.0861331021567784E-006
  0.97100000000000009          2.2956166297690074E-006
  0.97400000000000020          2.4686909274124093E-006
  0.97700000000000009          2.6080369828141087E-006
  0.98000000000000020          2.7163097585660143E-006
  0.98300000000000010          2.7961227449690842E-006
  0.98600000000000021          2.8500886085243250E-006
  0.98900000000000010          2.8807556901979194E-006
  0.99200000000000021          2.8905706290858921E-006
  0.99500000000000011          2.8818874385447047E-006
  0.99800000000000022          2.8570036763427274E-006
   1.0010000000000001          2.8180443536394449E-006
   1.0040000000000002          2.7669794421231252E-006
   1.0070000000000001          2.7056638878662718E-006
   1.0100000000000000          2.6358518555630372E-006
   1.0130000000000001          2.5591451348183920E-006
   1.0160000000000000          2.4770019023422556E-006
   1.0190000000000001          2.3907693993959656E-006
   1.0220000000000000          2.3016526340681818E-006
   1.0250000000000001          2.2106799147302517E-006
   1.0280000000000000          2.1187820579946445E-006
   1.0310000000000001          2.0268154645629423E-006
   1.0340000000000000          1.9355136291100628E-006
   1.0370000000000001          1.8454873707143578E-006
   1.0400000000000000          1.7572599397803299E-006
   1.0430000000000001          1.6712656736100582E-006
   1.0460000000000000          1.5878351302406978E-006
   1.0490000000000002          1.5072352076359439E-006
   1.0520000000000000          1.4297051847703591E-006
   1.0550000000000002          1.3554116584342693E-006
   1.0580000000000001          1.2844417963907093E-006
   1.0610000000000002          1.2168388956233378E-006
   1.0640000000000001          1.1526086990020779E-006
   1.0670000000000002          1.0917150798820616E-006
   1.0700000000000001          1.0341067480816681E-006
   1.0730000000000002          9.7972174479950361E-007
   1.0760000000000001          9.2846311749933696E-007
   1.0790000000000002          8.8019835293287975E-007
   1.0820000000000001          8.3479000669105140E-007
   1.0850000000000002          7.9210074476523694E-007
   1.0880000000000001          7.5199159844546042E-007
   1.0910000000000002          7.1432712346098975E-007
   1.0940000000000001          6.7897117458615159E-007
   1.0970000000000002          6.4576320208917611E-007
