 -0.39999999999999997          0.0000000000000000     
 -0.39699999999999996          0.0000000000000000     
 -0.39399999999999996          0.0000000000000000     
 -0.39099999999999996          0.0000000000000000     
 -0.38799999999999996          0.0000000000000000     
 -0.38499999999999995          0.0000000000000000     
 -0.38199999999999995          0.0000000000000000     
 -0.37899999999999995          0.0000000000000000     
 -0.37599999999999995          0.0000000000000000     
 -0.37299999999999994          0.0000000000000000     
 -0.37000000000000000          0.0000000000000000     
 -0.36699999999999999          0.0000000000000000     
 -0.36399999999999999          0.0000000000000000     
 -0.36099999999999999          0.0000000000000000     
 -0.35799999999999998          0.0000000000000000     
 -0.35499999999999998          0.0000000000000000     
 -0.35199999999999998          0.0000000000000000     
 -0.34899999999999998          0.0000000000000000     
 -0.34599999999999997          0.0000000000000000     
 -0.34299999999999997          0.0000000000000000     
 -0.33999999999999997          0.0000000000000000     
 -0.33699999999999997          0.0000000000000000     
 -0.33399999999999996          0.0000000000000000     
 -0.33099999999999996          0.0000000000000000     
 -0.32799999999999996          0.0000000000000000     
 -0.32499999999999996          0.0000000000000000     
 -0.32199999999999995          0.0000000000000000     
 -0.31899999999999995          0.0000000000000000     
 -0.31599999999999995          0.0000000000000000     
 -0.31299999999999994          0.0000000000000000     
 -0.30999999999999994          0.0000000000000000     
 -0.30699999999999994          0.0000000000000000     
 -0.30399999999999994          0.0000000000000000     
 -0.30099999999999993          0.0000000000000000     
 -0.29799999999999993          0.0000000000000000     
 -0.29499999999999998          0.0000000000000000     
 -0.29199999999999998          0.0000000000000000     
 -0.28899999999999998          0.0000000000000000     
 -0.28599999999999998         -2.3662752161940508E-041
 -0.28299999999999997          7.0746078425913924E-040
 -0.27999999999999997          6.3854508081951542E-040
 -0.27699999999999997         -6.5677548802293077E-039
 -0.27399999999999997          1.1669895865370180E-038
 -0.27099999999999996          3.3821918676233622E-038
 -0.26799999999999996         -1.4213581723724043E-037
 -0.26499999999999996         -1.0176305638177564E-038
 -0.26199999999999996          8.7958660524394886E-037
 -0.25899999999999995         -9.8554968338854619E-037
 -0.25599999999999995         -4.0116283168690313E-036
 -0.25300000000000000          9.4427504688146203E-036
 -0.24999999999999997          1.2912275128126013E-035
 -0.24699999999999997         -5.9195044360927754E-035
 -0.24399999999999997         -1.9995118202616060E-035
 -0.24099999999999996          2.9671978243290885E-034
 -0.23799999999999996         -8.7193238735542939E-035
 -0.23499999999999996         -1.2761097972922079E-033
 -0.23199999999999996          9.8976105039266229E-034
 -0.22899999999999995          4.8922845264702134E-033
 -0.22599999999999995         -5.7923080051999315E-033
 -0.22299999999999998         -1.7178762368278908E-032
 -0.21999999999999997          2.6394211605803478E-032
 -0.21699999999999997          5.6530157296089585E-032
 -0.21399999999999997         -1.0261330847915953E-031
 -0.21099999999999997         -1.7789483860278245E-031
 -0.20799999999999996          3.5182732647176118E-031
 -0.20499999999999996          5.4355716867726502E-031
 -0.20199999999999996         -1.0747613040942433E-030
 -0.19899999999999995         -1.6213043870175109E-030
 -0.19599999999999995          2.9083262483490058E-030
 -0.19299999999999995          4.6808192256360744E-030
 -0.18999999999999997         -6.7950103970909734E-030
 -0.18699999999999997         -1.2776819895923434E-029
 -0.18399999999999997          1.2803399928695427E-029
 -0.18099999999999997          3.1699755354366875E-029
 -0.17799999999999996         -1.5325296827900986E-029
 -0.17499999999999996         -6.6822051725973995E-029
 -0.17199999999999996         -8.4465570932288532E-030
 -0.16899999999999996          1.0134795641629013E-028
 -0.16599999999999995          1.0999948854641074E-028
 -0.16299999999999995         -2.4560827004496978E-029
 -0.15999999999999998         -3.2684862650545080E-028
 -0.15699999999999997         -5.0956917473846951E-028
 -0.15399999999999997          4.1496891244645617E-028
 -0.15099999999999997          2.1322782969288270E-027
 -0.14799999999999996          9.0717085202197099E-028
 -0.14499999999999996         -4.9398307693678172E-027
 -0.14199999999999996         -6.9183275138903221E-027
 -0.13899999999999996          5.0681861773617124E-027
 -0.13599999999999995          2.1021608020915036E-026
 -0.13299999999999995          1.1930380248403273E-026
 -0.12999999999999995         -3.3199373055909433E-026
 -0.12699999999999995         -7.0429340879257168E-026
 -0.12399999999999994         -1.4000958365290161E-026
 -0.12099999999999994          1.5703299710706264E-025
 -0.11799999999999994          2.4695799591463543E-025
 -0.11499999999999994         -6.9191282656797872E-026
 -0.11199999999999993         -7.0324507008927689E-025
 -0.10899999999999999         -7.4531220760090067E-025
 -0.10599999999999998          7.0428160148550907E-025
 -0.10299999999999998          2.6900236785802713E-024
  -9.9999999999999978E-002     1.9921773950865337E-024
  -9.6999999999999975E-002    -3.5423855019313877E-024
  -9.3999999999999972E-002    -9.6470422900895052E-024
  -9.0999999999999970E-002    -5.3656553566312237E-024
  -8.7999999999999967E-002     1.5040165630027913E-023
  -8.4999999999999964E-002     3.4194681151343290E-023
  -8.1999999999999962E-002     1.4159957015825478E-023
  -7.8999999999999959E-002    -5.8758350924858053E-023
  -7.5999999999999956E-002    -1.1813871661524190E-022
  -7.2999999999999954E-002    -3.8946195891679612E-023
  -6.9999999999999951E-002     2.1133860507686597E-022
  -6.6999999999999948E-002     4.0368475120921909E-022
  -6.3999999999999946E-002     1.2879035621056353E-022
  -6.0999999999999943E-002    -7.1528676251542522E-022
  -5.7999999999999940E-002    -1.3772572401194239E-021
  -5.4999999999999938E-002    -5.0641661899398450E-022
  -5.1999999999999935E-002     2.2852388261417322E-021
  -4.8999999999999932E-002     4.6488128683294870E-021
  -4.5999999999999985E-002     2.1846872716550220E-021
  -4.2999999999999983E-002    -6.7762246938303783E-021
  -3.9999999999999980E-002    -1.5394382347610791E-020
  -3.6999999999999977E-002    -9.5564050013960472E-021
  -3.3999999999999975E-002     1.8136526062964060E-020
  -3.0999999999999972E-002     4.9408966821879322E-020
  -2.7999999999999969E-002     4.0109502667795737E-020
  -2.4999999999999967E-002    -4.0888811370190243E-020
  -2.1999999999999964E-002    -1.5083874570881258E-019
  -1.8999999999999961E-002    -1.5770589675633178E-019
  -1.5999999999999959E-002     6.0360623366392367E-020
  -1.2999999999999956E-002     4.2744387909962720E-019
  -9.9999999999999534E-003     5.7372182157946799E-019
  -6.9999999999999507E-003     5.8745676516383983E-020
  -3.9999999999999480E-003    -1.0818752351783214E-018
  -9.9999999999994538E-004    -1.9071978083667900E-018
   2.0000000000000573E-003    -9.6193297452641847E-019
   5.0000000000000600E-003     2.2554426163452003E-018
   8.0000000000000626E-003     5.6933115338358344E-018
   1.1000000000000065E-002     5.0111314484280091E-018
   1.4000000000000068E-002    -2.9123188396832860E-018
   1.7000000000000015E-002    -1.4795931543104604E-017
   2.0000000000000018E-002    -1.9213319947754625E-017
   2.3000000000000020E-002    -3.5665219335923935E-018
   2.6000000000000023E-002     3.1250762281676527E-017
   2.9000000000000026E-002     5.9911797060151774E-017
   3.2000000000000028E-002     4.1975685941419437E-017
   3.5000000000000031E-002    -4.2608724219554323E-017
   3.8000000000000034E-002    -1.5220839608039225E-016
   4.1000000000000036E-002    -1.8020945185442880E-016
   4.4000000000000039E-002    -2.4374867187102760E-017
   4.7000000000000042E-002     2.9264387826307501E-016
   5.0000000000000044E-002     5.4792106773768068E-016
   5.3000000000000047E-002     4.0728815621855472E-016
   5.6000000000000050E-002    -2.9423554484705263E-016
   5.9000000000000052E-002    -1.2429388899081985E-015
   6.2000000000000055E-002    -1.6196449366680297E-015
   6.5000000000000058E-002    -5.8903157248275248E-016
   6.8000000000000060E-002     1.8409291331866197E-015
   7.1000000000000063E-002     4.2206382253422475E-015
   7.4000000000000066E-002     4.1122893583417052E-015
   7.7000000000000068E-002    -1.5414453456186088E-016
   8.0000000000000016E-002    -7.3098536506906560E-015
   8.3000000000000018E-002    -1.2423914603158712E-014
   8.6000000000000021E-002    -9.2459749240978316E-015
   8.9000000000000024E-002     4.7203275384256249E-015
   9.2000000000000026E-002     2.3534780761022186E-014
   9.5000000000000029E-002     3.3111591497025973E-014
   9.8000000000000032E-002     1.9104211602605867E-014
  0.10100000000000003         -2.0429614921769526E-014
  0.10400000000000004         -6.6204320069905057E-014
  0.10700000000000004         -8.2530388558597439E-014
  0.11000000000000004         -3.8796272487132929E-014
  0.11300000000000004          6.2116402990874989E-014
  0.11600000000000005          1.6877931899538279E-013
  0.11900000000000005          1.9833723777560600E-013
  0.12200000000000005          8.7025306107249675E-014
  0.12500000000000006         -1.5083320389909381E-013
  0.12800000000000006         -3.9746310668906325E-013
  0.13100000000000006         -4.7327458234987474E-013
  0.13400000000000006         -2.4137465839832383E-013
  0.13700000000000007          2.7694943373024459E-013
  0.14000000000000007          8.5357419781813985E-013
  0.14300000000000007          1.1279556291686824E-012
  0.14600000000000007          7.9379041524492518E-013
  0.14900000000000008         -1.9027987803814697E-013
  0.15200000000000008         -1.4914679570684249E-012
  0.15500000000000008         -2.4848240473021923E-012
  0.15800000000000008         -2.5180154504915206E-012
  0.16100000000000009         -1.2437967152760486E-012
  0.16400000000000009          1.1447191051126698E-012
  0.16700000000000009          3.9004622852946975E-012
  0.17000000000000010          5.9467356041394530E-012
  0.17300000000000010          6.2454992857814826E-012
  0.17600000000000010          4.1661088391842416E-012
  0.17899999999999999         -2.6051687561130505E-013
  0.18200000000000000         -6.2489100083540156E-012
  0.18500000000000000         -1.2324896971126568E-011
  0.18800000000000000         -1.6547619144147268E-011
  0.19100000000000000         -1.6906383600609567E-011
  0.19400000000000001         -1.1893341069685194E-011
  0.19700000000000001         -1.1614525966348394E-012
  0.20000000000000001          1.3950706269454567E-011
  0.20300000000000001          3.0314049427216641E-011
  0.20600000000000002          4.3527159680956437E-011
  0.20900000000000002          4.9021082093132685E-011
  0.21200000000000002          4.3428565063186076E-011
  0.21500000000000002          2.5728705303789509E-011
  0.21800000000000003         -2.2564678411320022E-012
  0.22100000000000003         -3.6161066888564002E-011
  0.22400000000000003         -6.9983508153841347E-011
  0.22700000000000004         -9.7217774687219865E-011
  0.23000000000000004         -1.1184849918618313E-010
  0.23300000000000004         -1.0906443954888308E-010
  0.23600000000000004         -8.5768294729846892E-011
  0.23900000000000005         -4.1056879541262713E-011
  0.24200000000000005          2.3242044989647111E-011
  0.24500000000000005          1.0207768828707374E-010
  0.24800000000000005          1.8697300786507470E-010
  0.25100000000000006          2.6633704209495689E-010
  0.25400000000000006          3.2637832132001655E-010
  0.25700000000000006          3.5249425255258642E-010
  0.26000000000000006          3.3086577933572318E-010
  0.26300000000000007          2.4990326570737684E-010
  0.26600000000000007          1.0127954427886211E-010
  0.26900000000000007         -1.1962453786451879E-010
  0.27200000000000008         -4.1395461768943423E-010
  0.27500000000000008         -7.8018354940445910E-010
  0.27800000000000008         -1.2152805264481845E-009
  0.28100000000000008         -1.7161381404900530E-009
  0.28400000000000009         -2.2810188578406441E-009
  0.28700000000000009         -2.9108728376728346E-009
  0.29000000000000009         -3.6106216343687843E-009
  0.29300000000000009         -4.3903651278183360E-009
  0.29600000000000010         -5.2665402111873671E-009
  0.29900000000000010         -6.2627530396422531E-009
  0.30200000000000010         -7.4104074294698138E-009
  0.30499999999999999         -8.7491254911128805E-009
  0.30800000000000000         -1.0326626605812433E-008
  0.31100000000000000         -1.2198662426473023E-008
  0.31400000000000000         -1.4428920843696313E-008
  0.31700000000000000         -1.7089095025546079E-008
  0.32000000000000001         -2.0259047880331667E-008
  0.32300000000000001         -2.4027062440528684E-008
  0.32600000000000001         -2.8490821208047616E-008
  0.32900000000000001         -3.3758272481274331E-008
  0.33200000000000002         -3.9950237235656911E-008
  0.33500000000000002         -4.7202028376852413E-008
  0.33800000000000002         -5.5665640507172030E-008
  0.34100000000000003         -6.5513379733696138E-008
  0.34400000000000003         -7.6940574214711064E-008
  0.34700000000000003         -9.0168163625681268E-008
  0.35000000000000003         -1.0544597724217287E-007
  0.35300000000000004         -1.2305554547635299E-007
  0.35600000000000004         -1.4331548569905957E-007
  0.35900000000000004         -1.6658193675805405E-007
  0.36200000000000004         -1.9325175483738500E-007
  0.36500000000000005         -2.2376503029088763E-007
  0.36800000000000005         -2.5860765505209689E-007
  0.37100000000000005         -2.9831244021297594E-007
  0.37400000000000005         -3.4346566901271937E-007
  0.37700000000000006         -3.9470531096627994E-007
  0.38000000000000006         -4.5272717186853680E-007
  0.38300000000000006         -5.1828738866514180E-007
  0.38600000000000007         -5.9219715295649244E-007
  0.38900000000000007         -6.7533207465210399E-007
  0.39200000000000007         -7.6862470344247442E-007
  0.39500000000000007         -8.7307654183241441E-007
  0.39800000000000008         -9.8975024489329637E-007
  0.40100000000000008         -1.1197711200975247E-006
  0.40400000000000008         -1.2643048697836845E-006
  0.40700000000000008         -1.4246083242034467E-006
  0.41000000000000009         -1.6019688582795528E-006
  0.41300000000000009         -1.7977160695542896E-006
  0.41600000000000009         -2.0132281062794583E-006
  0.41900000000000009         -2.2499055970170683E-006
  0.42200000000000010         -2.5091894549308872E-006
  0.42500000000000010         -2.7924684144264950E-006
  0.42800000000000010         -3.1011726016585280E-006
  0.43100000000000011         -3.4366993140259860E-006
  0.43400000000000000         -3.8003615187586193E-006
  0.43700000000000000         -4.1934299313928698E-006
  0.44000000000000000         -4.6170635203792565E-006
  0.44300000000000000         -5.0722848202816818E-006
  0.44600000000000001         -5.5600213725971169E-006
  0.44900000000000001         -6.0809667671630785E-006
  0.45200000000000001         -6.6356111683652587E-006
  0.45500000000000002         -7.2241950046947537E-006
  0.45800000000000002         -7.8467240879252992E-006
  0.46100000000000002         -8.5027762654834059E-006
  0.46400000000000002         -9.1916650939990710E-006
  0.46700000000000003         -9.9123436347970932E-006
  0.47000000000000003         -1.0663221101185042E-005
  0.47300000000000003         -1.1442335404469784E-005
  0.47600000000000003         -1.2247174484253853E-005
  0.47900000000000004         -1.3074679530239140E-005
  0.48200000000000004         -1.3921237895293955E-005
  0.48500000000000004         -1.4782793044591180E-005
  0.48800000000000004         -1.5654541912475115E-005
  0.49100000000000005         -1.6530981571507684E-005
  0.49400000000000005         -1.7406182534703758E-005
  0.49700000000000005         -1.8273343572488008E-005
  0.50000000000000000         -1.9125262107571823E-005
  0.50300000000000011         -1.9954116906446267E-005
  0.50600000000000001         -2.0751226553538250E-005
  0.50900000000000012         -2.1507580526645228E-005
  0.51200000000000001         -2.2213531220296164E-005
  0.51500000000000012         -2.2859189611288231E-005
  0.51800000000000002         -2.3434102499234502E-005
  0.52100000000000013         -2.3927186236942670E-005
  0.52400000000000002         -2.4327994629020705E-005
  0.52700000000000014         -2.4625047662778352E-005
  0.53000000000000003         -2.4807051438256030E-005
  0.53300000000000014         -2.4863285605264904E-005
  0.53600000000000003         -2.4782844506930259E-005
  0.53900000000000015         -2.4555168663508942E-005
  0.54200000000000004         -2.4170288422882942E-005
  0.54500000000000015         -2.3618774174038356E-005
  0.54800000000000004         -2.2892377921638947E-005
  0.55100000000000016         -2.1983170562807404E-005
  0.55400000000000005         -2.0884832868791788E-005
  0.55700000000000016         -1.9592006006158656E-005
  0.56000000000000005         -1.8101071287901575E-005
  0.56299999999999994         -1.6409837954329651E-005
  0.56600000000000006         -1.4517776732813735E-005
  0.56899999999999995         -1.2425638424177470E-005
  0.57200000000000006         -1.0136398176860987E-005
  0.57499999999999996         -7.6555044725486147E-006
  0.57800000000000007         -4.9897993764555169E-006
  0.58099999999999996         -2.1484556045883569E-006
  0.58400000000000007          8.5721904577784685E-007
  0.58699999999999997          4.0136953274749287E-006
  0.59000000000000008          7.3059335102348607E-006
  0.59299999999999997          1.0716212680490869E-005
  0.59600000000000009          1.4225316238002072E-005
  0.59899999999999998          1.7812094338146217E-005
  0.60200000000000009          2.1453531728044390E-005
  0.60500000000000020          2.5125274906387829E-005
  0.60800000000000010          2.8801798432585734E-005
  0.61100000000000021          3.2456226834376263E-005
  0.61400000000000010          3.6060928658819294E-005
  0.61700000000000021          3.9587543051638568E-005
  0.62000000000000011          4.3007792256174114E-005
  0.62300000000000022          4.6292831629377379E-005
  0.62600000000000011          4.9414607824590842E-005
  0.62900000000000000          5.2345281873500582E-005
  0.63200000000000012          5.5058000403583146E-005
  0.63500000000000001          5.7527362163789633E-005
  0.63800000000000012          5.9729195338710414E-005
  0.64100000000000001          6.1641102743307556E-005
  0.64400000000000013          6.3243017205619976E-005
  0.64700000000000002          6.4517132835040106E-005
  0.65000000000000013          6.5448196042540153E-005
  0.65300000000000002          6.6023572660127531E-005
  0.65600000000000014          6.6234117322350528E-005
  0.65900000000000003          6.6073157975985879E-005
  0.66200000000000014          6.5537823226650266E-005
  0.66500000000000004          6.4627800937346383E-005
  0.66800000000000015          6.3347217182880514E-005
  0.67100000000000004          6.1702632684163171E-005
  0.67400000000000015          5.9704205538203830E-005
  0.67700000000000005          5.7365206587088423E-005
  0.68000000000000016          5.4702302155466079E-005
  0.68300000000000005          5.1734294263584477E-005
  0.68600000000000017          4.8483551363305804E-005
  0.68900000000000006          4.4974393837674848E-005
  0.69200000000000017          4.1233500683867294E-005
  0.69500000000000006          3.7289992970995706E-005
  0.69800000000000018          3.3173587539993107E-005
  0.70100000000000007          2.8916041077964237E-005
  0.70400000000000018          2.4550184465458364E-005
  0.70700000000000007          2.0108135807558255E-005
  0.71000000000000019          1.5623483267317646E-005
  0.71300000000000008          1.1129933122065490E-005
  0.71600000000000019          6.6598115625546096E-006
  0.71900000000000008          2.2459812301137269E-006
  0.72200000000000020         -2.0816524548666532E-006
  0.72500000000000009         -6.2934105343014481E-006
  0.72800000000000020         -1.0361403723276282E-005
  0.73100000000000009         -1.4259994238054425E-005
  0.73400000000000021         -1.7965433802827608E-005
  0.73700000000000010         -2.1456222278031084E-005
  0.74000000000000021         -2.4713483524174603E-005
  0.74300000000000010         -2.7720815978956155E-005
  0.74600000000000022         -3.0465433003987206E-005
  0.74900000000000011         -3.2935924341070857E-005
  0.75200000000000022         -3.5124880887611902E-005
  0.75500000000000012         -3.7026882025867905E-005
  0.75800000000000001         -3.8639299869702380E-005
  0.76100000000000012         -3.9962063869592105E-005
  0.76400000000000001         -4.0998480032172584E-005
  0.76700000000000013         -4.1753835298468372E-005
  0.77000000000000002         -4.2235250018503714E-005
  0.77300000000000013         -4.2451892787252165E-005
  0.77600000000000002         -4.2415229815441477E-005
  0.77900000000000014         -4.2138479993031319E-005
  0.78200000000000003         -4.1635796775550625E-005
  0.78500000000000014         -4.0922786407974932E-005
  0.78800000000000003         -4.0016805926584825E-005
  0.79100000000000015         -3.8934921752439679E-005
  0.79400000000000004         -3.7694741548576337E-005
  0.79700000000000015         -3.6314890251852100E-005
  0.80000000000000004         -3.4814368938408574E-005
  0.80300000000000016         -3.3211329811814907E-005
  0.80600000000000005         -3.1523491120808209E-005
  0.80900000000000016         -2.9769246956415162E-005
  0.81200000000000006         -2.7965757129178418E-005
  0.81500000000000017         -2.6128900844672971E-005
  0.81800000000000006         -2.4274339191457665E-005
  0.82100000000000017         -2.2417437076534917E-005
  0.82400000000000007         -2.0571696480445989E-005
  0.82700000000000018         -1.8749105384913408E-005
  0.83000000000000007         -1.6961387378205033E-005
  0.83300000000000018         -1.5219171289044300E-005
  0.83600000000000008         -1.3531004013326289E-005
  0.83900000000000019         -1.1904504257142776E-005
  0.84200000000000008         -1.0347012888528587E-005
  0.84500000000000020         -8.8643271842897779E-006
  0.84800000000000009         -7.4602201968554120E-006
  0.85100000000000020         -6.1379481858507200E-006
  0.85400000000000009         -4.9002241190271593E-006
  0.85700000000000021         -3.7484215492406172E-006
  0.86000000000000010         -2.6826047315937958E-006
  0.86300000000000021         -1.7028975439709339E-006
  0.86600000000000010         -8.0878305870620138E-007
  0.86900000000000022          1.7408730471879455E-009
  0.87200000000000011          7.3139085789283443E-007
  0.87500000000000022          1.3825955749961266E-006
  0.87800000000000011          1.9583357069038690E-006
  0.88100000000000001          2.4623035527740690E-006
  0.88400000000000012          2.8983594450139670E-006
  0.88700000000000001          3.2699796268328304E-006
  0.89000000000000012          3.5813147454468162E-006
  0.89300000000000002          3.8370762956235189E-006
  0.89600000000000013          4.0415745311348854E-006
  0.89900000000000002          4.1986917877974884E-006
  0.90200000000000014          4.3125167308085973E-006
  0.90500000000000003          4.3873091976185337E-006
  0.90800000000000014          4.4269341115613132E-006
  0.91100000000000003          4.4350280195142693E-006
  0.91400000000000015          4.4156274281882290E-006
  0.91700000000000004          4.3725400085067488E-006
  0.92000000000000015          4.3086480232204504E-006
  0.92300000000000004          4.2265729735703890E-006
  0.92600000000000016          4.1292830762954591E-006
  0.92900000000000005          4.0196608230290783E-006
  0.93200000000000016          3.8999715539680650E-006
  0.93500000000000005          3.7723207614933642E-006
  0.93800000000000017          3.6390754908107743E-006
  0.94100000000000006          3.5019664336502826E-006
  0.94400000000000017          3.3619680170067912E-006
  0.94700000000000006          3.2203246795748810E-006
  0.95000000000000018          3.0787374131679733E-006
  0.95300000000000007          2.9384152803422615E-006
  0.95600000000000018          2.7999307822185097E-006
  0.95900000000000007          2.6641073858603403E-006
  0.96200000000000019          2.5317828584608282E-006
  0.96500000000000008          2.4030665559047530E-006
  0.96800000000000019          2.2778618395491590E-006
  0.97100000000000009          2.1569591632165279E-006
  0.97400000000000020          2.0410791307738130E-006
  0.97700000000000009          1.9300877387276103E-006
  0.98000000000000020          1.8237533354479454E-006
  0.98300000000000010          1.7223829513042105E-006
  0.98600000000000021          1.6259101880653711E-006
  0.98900000000000010          1.5337405539407492E-006
  0.99200000000000021          1.4459163779466284E-006
  0.99500000000000011          1.3630110621608253E-006
  0.99800000000000022          1.2848400583374683E-006
   1.0010000000000001          1.2107221668882894E-006
   1.0040000000000002          1.1405957947375689E-006
   1.0070000000000001          1.0745741025434010E-006
   1.0100000000000000          1.0121379897893384E-006
   1.0130000000000001          9.5291050475886211E-007
   1.0160000000000000          8.9723788376105143E-007
   1.0190000000000001          8.4518422014419752E-007
   1.0220000000000000          7.9609692536268379E-007
   1.0250000000000001          7.4966319656622289E-007
   1.0280000000000000          7.0612795949166694E-007
   1.0310000000000001          6.6533950484711506E-007
   1.0340000000000000          6.2681902741803772E-007
   1.0370000000000001          5.9059359922310263E-007
   1.0400000000000000          5.5683526335624429E-007
   1.0430000000000001          5.2515624514809064E-007
   1.0460000000000000          4.9517152361210420E-007
   1.0490000000000002          4.6705127646464195E-007
   1.0520000000000000          4.4095375153228306E-007
   1.0550000000000002          4.1658718726140275E-007
   1.0580000000000001          3.9372071077533372E-007
   1.0610000000000002          3.7238969858491503E-007
   1.0640000000000001          3.5247036866302662E-007
   1.0670000000000002          3.3368895117655436E-007
   1.0700000000000001          3.1604299181077307E-007
   1.0730000000000002          2.9972657708445757E-007
   1.0760000000000001          2.8471604380483998E-007
   1.0790000000000002          2.7074100426990646E-007
   1.0820000000000001          2.5759476344778316E-007
   1.0850000000000002          2.4526007655732102E-007
   1.0880000000000001          2.3375248996250340E-007
   1.0910000000000002          2.2300140287804778E-007
   1.0940000000000001          2.1298373239628990E-007
   1.0970000000000002          2.0377640913142414E-007
