 -0.39999999999999997          0.0000000000000000     
 -0.39699999999999996          0.0000000000000000     
 -0.39399999999999996          0.0000000000000000     
 -0.39099999999999996          0.0000000000000000     
 -0.38799999999999996          0.0000000000000000     
 -0.38499999999999995          0.0000000000000000     
 -0.38199999999999995          0.0000000000000000     
 -0.37899999999999995          0.0000000000000000     
 -0.37599999999999995          0.0000000000000000     
 -0.37299999999999994          0.0000000000000000     
 -0.37000000000000000          0.0000000000000000     
 -0.36699999999999999          0.0000000000000000     
 -0.36399999999999999          0.0000000000000000     
 -0.36099999999999999          0.0000000000000000     
 -0.35799999999999998          0.0000000000000000     
 -0.35499999999999998          0.0000000000000000     
 -0.35199999999999998          0.0000000000000000     
 -0.34899999999999998          0.0000000000000000     
 -0.34599999999999997          0.0000000000000000     
 -0.34299999999999997          0.0000000000000000     
 -0.33999999999999997          0.0000000000000000     
 -0.33699999999999997          0.0000000000000000     
 -0.33399999999999996          0.0000000000000000     
 -0.33099999999999996          0.0000000000000000     
 -0.32799999999999996          0.0000000000000000     
 -0.32499999999999996          0.0000000000000000     
 -0.32199999999999995          0.0000000000000000     
 -0.31899999999999995          0.0000000000000000     
 -0.31599999999999995          0.0000000000000000     
 -0.31299999999999994          0.0000000000000000     
 -0.30999999999999994          0.0000000000000000     
 -0.30699999999999994          0.0000000000000000     
 -0.30399999999999994          0.0000000000000000     
 -0.30099999999999993          0.0000000000000000     
 -0.29799999999999993          0.0000000000000000     
 -0.29499999999999998          0.0000000000000000     
 -0.29199999999999998          0.0000000000000000     
 -0.28899999999999998          0.0000000000000000     
 -0.28599999999999998          0.0000000000000000     
 -0.28299999999999997          1.2211057640457525E-041
 -0.27999999999999997          4.9995548660611052E-042
 -0.27699999999999997         -4.7484702813416687E-041
 -0.27399999999999997          1.4673126823749078E-040
 -0.27099999999999996          6.6657448880139552E-040
 -0.26799999999999996          7.7647328247708077E-040
 -0.26499999999999996         -2.6867563062858752E-039
 -0.26199999999999996          1.2335841316208550E-040
 -0.25899999999999995         -6.2115676541204895E-039
 -0.25599999999999995         -2.0960800048529496E-039
 -0.25300000000000000          3.9295242549285237E-038
 -0.24999999999999997         -2.6475791883425798E-038
 -0.24699999999999997         -2.0138097090640381E-037
 -0.24399999999999997          2.8674547752538415E-037
 -0.24099999999999996          8.7029443806448416E-037
 -0.23799999999999996         -1.9413249866394900E-036
 -0.23499999999999996         -3.2473686830439508E-036
 -0.23199999999999996          1.0545746828533674E-035
 -0.22899999999999995          1.0612670850310281E-035
 -0.22599999999999995         -4.9604036390092668E-035
 -0.22299999999999998         -3.0914281686114312E-035
 -0.21999999999999997          2.0934933530665672E-034
 -0.21699999999999997          8.3783679147023416E-035
 -0.21399999999999997         -8.0816624305294940E-034
 -0.21099999999999997         -2.3495903741464257E-034
 -0.20799999999999996          2.8812812537062055E-033
 -0.20499999999999996          7.9219273956156445E-034
 -0.20199999999999996         -9.5043770838652450E-033
 -0.19899999999999995         -3.2694669930197963E-033
 -0.19599999999999995          2.8826629450200220E-032
 -0.19299999999999995          1.4298283435452267E-032
 -0.18999999999999997         -7.9047661148427231E-032
 -0.18699999999999997         -5.8520770950005543E-032
 -0.18399999999999997          1.8922206473160455E-031
 -0.18099999999999997          2.1136343063063131E-031
 -0.17799999999999996         -3.6465686590373087E-031
 -0.17499999999999996         -6.5043871352806809E-031
 -0.17199999999999996          4.2306312246123458E-031
 -0.16899999999999996          1.6204434588924008E-030
 -0.16599999999999995          4.5891587214013152E-031
 -0.16299999999999995         -2.8321499757563915E-030
 -0.15999999999999998         -4.3986838362900654E-030
 -0.15699999999999997          1.0525667315972637E-030
 -0.15399999999999997          1.3908102552341743E-029
 -0.15099999999999997          1.5434391304522816E-029
 -0.14799999999999996         -2.2845645972020068E-029
 -0.14499999999999996         -7.0742512400021420E-029
 -0.14199999999999996         -1.3134854199424468E-029
 -0.13899999999999996          1.7412700581002872E-028
 -0.13599999999999995          2.2186840515140186E-028
 -0.13299999999999995         -1.8607670847761880E-028
 -0.12999999999999995         -7.6021958936960138E-028
 -0.12699999999999995         -4.7076556176287436E-028
 -0.12399999999999994          1.2774789394247856E-027
 -0.12099999999999994          2.8510293129617522E-027
 -0.11799999999999994          5.6425817248935573E-028
 -0.11499999999999994         -6.5245749949866416E-027
 -0.11199999999999993         -1.0217594933086025E-026
 -0.10899999999999999          2.8173399655745067E-027
 -0.10599999999999998          2.9465388580828442E-026
 -0.10299999999999998          3.2945001898971550E-026
  -9.9999999999999978E-002    -2.7458773594371567E-026
  -9.6999999999999975E-002    -1.1872262819984824E-025
  -9.3999999999999972E-002    -9.9966117542530697E-026
  -9.0999999999999970E-002     1.4663932391058353E-025
  -8.7999999999999967E-002     4.5406886824448505E-025
  -8.4999999999999964E-002     3.0331191084517004E-025
  -8.1999999999999962E-002    -6.5523428657564728E-025
  -7.8999999999999959E-002    -1.6946217531494481E-024
  -7.5999999999999956E-002    -9.3706995299527140E-025
  -7.2999999999999954E-002     2.6455075440226158E-024
  -6.9999999999999951E-002     6.1916443906325153E-024
  -6.6999999999999948E-002     3.1065349850266012E-024
  -6.3999999999999946E-002    -9.8358474714221181E-024
  -6.0999999999999943E-002    -2.2351499561407635E-023
  -5.7999999999999940E-002    -1.1516921426850418E-023
  -5.4999999999999938E-002     3.4090200801262510E-023
  -5.1999999999999935E-002     7.9856763765497912E-023
  -4.8999999999999932E-002     4.6735968068779989E-023
  -4.5999999999999985E-002    -1.0946600376699500E-022
  -4.2999999999999983E-002    -2.8033242986065071E-022
  -3.9999999999999980E-002    -1.9811931964918291E-022
  -3.6999999999999977E-002     3.1690565556795486E-022
  -3.3999999999999975E-002     9.5690591373644076E-022
  -3.0999999999999972E-002     8.3813742605993310E-022
  -2.7999999999999969E-002    -7.7379950826752071E-022
  -2.4999999999999967E-002    -3.1276168321454992E-021
  -2.1999999999999964E-002    -3.4208555799039789E-021
  -1.8999999999999961E-002     1.2499471330777867E-021
  -1.5999999999999959E-002     9.5691651787790554E-021
  -1.2999999999999956E-002     1.3181168407289872E-020
  -9.9999999999999534E-003     1.2202099448967187E-021
  -6.9999999999999507E-003    -2.6449272258758049E-020
  -3.9999999999999480E-003    -4.7130063649223266E-020
  -9.9999999999994538E-004    -2.2972536824559825E-020
   2.0000000000000573E-003     6.1482701004395770E-020
   5.0000000000000600E-003     1.5333465637252111E-019
   8.0000000000000626E-003     1.3211327994705381E-019
   1.1000000000000065E-002    -9.5562602818171241E-020
   1.4000000000000068E-002    -4.4036417798419155E-019
   1.7000000000000015E-002    -5.6115892849376057E-019
   2.0000000000000018E-002    -6.0603620708249095E-020
   2.3000000000000020E-002     1.0495258109272169E-018
   2.6000000000000023E-002     1.9526291115326446E-018
   2.9000000000000026E-002     1.2751305318193147E-018
   3.2000000000000028E-002    -1.7205169702068718E-018
   3.5000000000000031E-002    -5.5948126582396764E-018
   3.8000000000000034E-002    -6.4178139541581410E-018
   4.1000000000000036E-002    -1.9707930477128289E-019
   4.4000000000000039E-002     1.2374509168865327E-017
   4.7000000000000042E-002     2.2397670545802770E-017
   5.0000000000000044E-002     1.5684503755752687E-017
   5.3000000000000047E-002    -1.5614442716803096E-017
   5.6000000000000050E-002    -5.8397857933336741E-017
   5.9000000000000052E-002    -7.4897022067879623E-017
   6.2000000000000055E-002    -2.3129336017743932E-017
   6.5000000000000058E-002     1.0081733338114098E-016
   6.8000000000000060E-002     2.2640690580927744E-016
   7.1000000000000063E-002     2.2153452890769157E-016
   7.4000000000000066E-002    -1.9883791015820573E-017
   7.7000000000000068E-002    -4.4772927102657084E-016
   8.0000000000000016E-002    -7.8232090850360264E-016
   8.3000000000000018E-002    -6.1370862947011870E-016
   8.6000000000000021E-002     2.9659994499138183E-016
   8.9000000000000024E-002     1.6563413313830473E-015
   9.2000000000000026E-002     2.5257373203984288E-015
   9.5000000000000029E-002     1.7205930887759451E-015
   9.8000000000000032E-002    -1.2805182344612925E-015
  0.10100000000000003         -5.4054746275355747E-015
  0.10400000000000004         -7.8399869149339798E-015
  0.10700000000000004         -5.2854219167049338E-015
  0.11000000000000004          3.5745876291059461E-015
  0.11300000000000004          1.5719980690511987E-014
  0.11600000000000005          2.3531239461075990E-014
  0.11900000000000005          1.8012080634386656E-014
  0.12200000000000005         -5.0898747239550685E-015
  0.12500000000000006         -3.9364792897826190E-014
  0.12800000000000006         -6.6501923208266532E-014
  0.13100000000000006         -6.2927317249122463E-014
  0.13400000000000006         -1.3391455444548695E-014
  0.13700000000000007          7.4596374871660871E-014
  0.14000000000000007          1.6464828275397705E-013
  0.14300000000000007          2.0100249799509911E-013
  0.14600000000000007          1.3381810046341082E-013
  0.14900000000000008         -4.9073424709274863E-014
  0.15200000000000008         -2.9996535185193130E-013
  0.15500000000000008         -5.1384553711027123E-013
  0.15800000000000008         -5.6160995727098497E-013
  0.16100000000000009         -3.4546806924069939E-013
  0.16400000000000009          1.4441163893955995E-013
  0.16700000000000009          7.9721420076775467E-013
  0.17000000000000010          1.3914196364989494E-012
  0.17300000000000010          1.6513333461416888E-012
  0.17600000000000010          1.3373830586186495E-012
  0.17899999999999999          3.4469128363563609E-013
  0.18200000000000000         -1.2206357241662875E-012
  0.18500000000000000         -3.0152220993138530E-012
  0.18800000000000000         -4.5004786747557239E-012
  0.19100000000000000         -5.0566087721454461E-012
  0.19400000000000001         -4.1530488722099728E-012
  0.19700000000000001         -1.5388636499276123E-012
  0.20000000000000001          2.6002801745394062E-012
  0.20300000000000001          7.5762222230811000E-012
  0.20600000000000002          1.2265785234967408E-011
  0.20900000000000002          1.5319026509540949E-011
  0.21200000000000002          1.5471024252419853E-011
  0.21500000000000002          1.1882789019915458E-011
  0.21800000000000003          4.4232062519965042E-012
  0.22100000000000003         -6.1804076805805532E-012
  0.22400000000000003         -1.8357647622804453E-011
  0.22700000000000004         -2.9868480571233170E-011
  0.23000000000000004         -3.8097790416213781E-011
  0.23300000000000004         -4.0425177930257001E-011
  0.23600000000000004         -3.4630845763735883E-011
  0.23900000000000005         -1.9306756054090294E-011
  0.24200000000000005          5.7591066009834751E-012
  0.24500000000000005          3.9269863462964952E-011
  0.24800000000000005          7.8236214805632588E-011
  0.25100000000000006          1.1798022459118755E-010
  0.25400000000000006          1.5236050360146377E-010
  0.25700000000000006          1.7421010245661565E-010
  0.26000000000000006          1.7592775357399973E-010
  0.26300000000000007          1.5012545865389985E-010
  0.26600000000000007          9.0223766692460384E-011
  0.26900000000000007         -9.1006391196115187E-012
  0.27200000000000008         -1.5167653922688911E-010
  0.27500000000000008         -3.3983538009181264E-010
  0.27800000000000008         -5.7464191560215082E-010
  0.28100000000000008         -8.5633858567927810E-010
  0.28400000000000009         -1.1849718270515436E-009
  0.28700000000000009         -1.5611656825461631E-009
  0.29000000000000009         -1.9869844292884201E-009
  0.29300000000000009         -2.4668256665562637E-009
  0.29600000000000010         -3.0082729937408328E-009
  0.29900000000000010         -3.6228547945652534E-009
  0.30200000000000010         -4.3266520491113851E-009
  0.30499999999999999         -5.1407513592020481E-009
  0.30800000000000000         -6.0915544430685378E-009
  0.31100000000000000         -7.2109494657503688E-009
  0.31400000000000000         -8.5363960328646633E-009
  0.31700000000000000         -1.0110977913886405E-008
  0.32000000000000001         -1.1983485442408969E-008
  0.32300000000000001         -1.4208585760044622E-008
  0.32600000000000001         -1.6847190005853388E-008
  0.32900000000000001         -1.9967076705879916E-008
  0.33200000000000002         -2.3643713403820623E-008
  0.33500000000000002         -2.7961437194193253E-008
  0.33800000000000002         -3.3014856143607675E-008
  0.34100000000000003         -3.8910405812418505E-008
  0.34400000000000003         -4.5768156089166814E-008
  0.34700000000000003         -5.3723819033194351E-008
  0.35000000000000003         -6.2930868274704028E-008
  0.35300000000000004         -7.3562518833518133E-008
  0.35600000000000004         -8.5814015950126258E-008
  0.35900000000000004         -9.9904619042009818E-008
  0.36200000000000004         -1.1607954293184339E-007
  0.36500000000000005         -1.3461190465410995E-007
  0.36800000000000005         -1.5580452812768370E-007
  0.37100000000000005         -1.7999161905687425E-007
  0.37400000000000005         -2.0754053351743638E-007
  0.37700000000000006         -2.3885338527226174E-007
  0.38000000000000006         -2.7436868559683242E-007
  0.38300000000000006         -3.1456272119842573E-007
  0.38600000000000007         -3.5995075256600077E-007
  0.38900000000000007         -4.1108823868081356E-007
  0.39200000000000007         -4.6857184630791002E-007
  0.39500000000000007         -5.3303961349904761E-007
  0.39800000000000008         -6.0517206554923897E-007
  0.40100000000000008         -6.8569165206462084E-007
  0.40400000000000008         -7.7536200481110800E-007
  0.40700000000000008         -8.7498631644614772E-007
  0.41000000000000009         -9.8540620703172550E-007
  0.41300000000000009         -1.1074979537698607E-006
  0.41600000000000009         -1.2421682916239118E-006
  0.41900000000000009         -1.3903490615629981E-006
  0.42200000000000010         -1.5529902504391116E-006
  0.42500000000000010         -1.7310541769636698E-006
  0.42800000000000010         -1.9255035405633152E-006
  0.43100000000000011         -2.1372909256528691E-006
  0.43400000000000000         -2.3673502620911405E-006
  0.43700000000000000         -2.6165790272838377E-006
  0.44000000000000000         -2.8858256655684948E-006
  0.44300000000000000         -3.1758716342688201E-006
  0.44600000000000001         -3.4874154880069653E-006
  0.44900000000000001         -3.8210526481381586E-006
  0.45200000000000001         -4.1772538914598351E-006
  0.45500000000000002         -4.5563479557017993E-006
  0.45800000000000002         -4.9584910974051226E-006
  0.46100000000000002         -5.3836581570533414E-006
  0.46400000000000002         -5.8316041200163036E-006
  0.46700000000000003         -6.3018450914532623E-006
  0.47000000000000003         -6.7936345352941806E-006
  0.47300000000000003         -7.3059470745806945E-006
  0.47600000000000003         -7.8374418789500036E-006
  0.47900000000000004         -8.3864474667529791E-006
  0.48200000000000004         -8.9509423650668643E-006
  0.48500000000000004         -9.5285290281428709E-006
  0.48800000000000004         -1.0116425097781834E-005
  0.49100000000000005         -1.0711453508669774E-005
  0.49400000000000005         -1.1310022549287385E-005
  0.49700000000000005         -1.1908119653423195E-005
  0.50000000000000000         -1.2501315048375227E-005
  0.50300000000000011         -1.3084778402796730E-005
  0.50600000000000001         -1.3653269192164419E-005
  0.50900000000000012         -1.4201161332904020E-005
  0.51200000000000001         -1.4722448297111898E-005
  0.51500000000000012         -1.5210806141528265E-005
  0.51800000000000002         -1.5659607891213052E-005
  0.52100000000000013         -1.6061974282731190E-005
  0.52400000000000002         -1.6410811387831601E-005
  0.52700000000000014         -1.6698904003468378E-005
  0.53000000000000003         -1.6918920142672938E-005
  0.53300000000000014         -1.7063536171713713E-005
  0.53600000000000003         -1.7125492700431770E-005
  0.53900000000000015         -1.7097718989985939E-005
  0.54200000000000004         -1.6973315518791156E-005
  0.54500000000000015         -1.6745788369634484E-005
  0.54800000000000004         -1.6409020137139702E-005
  0.55100000000000016         -1.5957447705748020E-005
  0.55400000000000005         -1.5386165657352810E-005
  0.55700000000000016         -1.4690936925744294E-005
  0.56000000000000005         -1.3868386811933521E-005
  0.56299999999999994         -1.2916051124379542E-005
  0.56600000000000006         -1.1832484416717386E-005
  0.56899999999999995         -1.0617327052394818E-005
  0.57200000000000006         -9.2713480628772802E-006
  0.57499999999999996         -7.7965803845742435E-006
  0.57800000000000007         -6.1963243454174077E-006
  0.58099999999999996         -4.4751840199473747E-006
  0.58400000000000007         -2.6392064178616595E-006
  0.58699999999999997         -6.9565922318267701E-007
  0.59000000000000008          1.3467466151912680E-006
  0.59299999999999997          3.4779995780825920E-006
  0.59600000000000009          5.6867616302961323E-006
  0.59899999999999998          7.9605148431962601E-006
  0.60200000000000009          1.0285541825207135E-005
  0.60500000000000020          1.2647037660143742E-005
  0.60800000000000010          1.5029279558583330E-005
  0.61100000000000021          1.7415672033819159E-005
  0.61400000000000010          1.9788930916758892E-005
  0.61700000000000021          2.2131284631312249E-005
  0.62000000000000011          2.4424558369180714E-005
  0.62300000000000022          2.6650416985370418E-005
  0.62600000000000011          2.8790478304976376E-005
  0.62900000000000000          3.0826623053666249E-005
  0.63200000000000012          3.2741098549652959E-005
  0.63500000000000001          3.4516763232318322E-005
  0.63800000000000012          3.6137249171078677E-005
  0.64100000000000001          3.7587205032378775E-005
  0.64400000000000013          3.8852455093827335E-005
  0.64700000000000002          3.9920168889411778E-005
  0.65000000000000013          4.0779014056625483E-005
  0.65300000000000002          4.1419360874360150E-005
  0.65600000000000014          4.1833352590059448E-005
  0.65900000000000003          4.2015054937369544E-005
  0.66200000000000014          4.1960507649161672E-005
  0.66500000000000004          4.1667857127574855E-005
  0.66800000000000015          4.1137305291915997E-005
  0.67100000000000004          4.0371242412561050E-005
  0.67400000000000015          3.9374145751619019E-005
  0.67700000000000005          3.8152565456315347E-005
  0.68000000000000016          3.6715060712566637E-005
  0.68300000000000005          3.5072188721428546E-005
  0.68600000000000017          3.3236258646095547E-005
  0.68900000000000006          3.1221372387150085E-005
  0.69200000000000017          2.9043115592116512E-005
  0.69500000000000006          2.6718508834905103E-005
  0.69800000000000018          2.4265730910888900E-005
  0.70100000000000007          2.1703935351126778E-005
  0.70400000000000018          1.9053101524338787E-005
  0.70700000000000007          1.6333749607426527E-005
  0.71000000000000019          1.3566748919555486E-005
  0.71300000000000008          1.0773056704389831E-005
  0.71600000000000019          7.9736750105065962E-006
  0.71900000000000008          5.1891460141153230E-006
  0.72200000000000020          2.4395474050026436E-006
  0.72500000000000009         -2.5575543432896649E-007
  0.72800000000000020         -2.8783800406609795E-006
  0.73100000000000009         -5.4109455205310008E-006
  0.73400000000000021         -7.8373854058517636E-006
  0.73700000000000010         -1.0142964581341772E-005
  0.74000000000000021         -1.2314475988604262E-005
  0.74300000000000010         -1.4340265824072096E-005
  0.74600000000000022         -1.6210261691172393E-005
  0.74900000000000011         -1.7916257473859296E-005
  0.75200000000000022         -1.9451717107094304E-005
  0.75500000000000012         -2.0811869157081364E-005
  0.75800000000000001         -2.1993691370099674E-005
  0.76100000000000012         -2.2995785753936240E-005
  0.76400000000000001         -2.3818507573933596E-005
  0.76700000000000013         -2.4463704518061673E-005
  0.77000000000000002         -2.4934720313160239E-005
  0.77300000000000013         -2.5236284186079021E-005
  0.77600000000000002         -2.5374487986398724E-005
  0.77900000000000014         -2.5356494950832326E-005
  0.78200000000000003         -2.5190518930006253E-005
  0.78500000000000014         -2.4885635481710815E-005
  0.78800000000000003         -2.4451685953303836E-005
  0.79100000000000015         -2.3899088296425201E-005
  0.79400000000000004         -2.3238735410280981E-005
  0.79700000000000015         -2.2481892950152233E-005
  0.80000000000000004         -2.1639991728698736E-005
  0.80300000000000016         -2.0724486527405494E-005
  0.80600000000000005         -1.9746776101423674E-005
  0.80900000000000016         -1.8718080565452519E-005
  0.81200000000000006         -1.7649352579946389E-005
  0.81500000000000017         -1.6551156198525446E-005
  0.81800000000000006         -1.5433600866043728E-005
  0.82100000000000017         -1.4306308791761572E-005
  0.82400000000000007         -1.3178280405333821E-005
  0.82700000000000018         -1.2057849586097205E-005
  0.83000000000000007         -1.0952669330880093E-005
  0.83300000000000018         -9.8696783962097013E-006
  0.83600000000000008         -8.8150671355092349E-006
  0.83900000000000019         -7.7943049515226828E-006
  0.84200000000000008         -6.8121555224748272E-006
  0.84500000000000020         -5.8726637426493173E-006
  0.84800000000000009         -4.9791384622398267E-006
  0.85100000000000020         -4.1341863475968633E-006
  0.85400000000000009         -3.3397678404701219E-006
  0.85700000000000021         -2.5972189722385051E-006
  0.86000000000000010         -1.9073087990008527E-006
  0.86300000000000021         -1.2703125984711435E-006
  0.86600000000000010         -6.8601894715798148E-007
  0.86900000000000022         -1.5374867481613220E-007
  0.87200000000000011          3.2758801525996107E-007
  0.87500000000000022          7.5941714957891212E-007
  0.87800000000000011          1.1434673758302952E-006
  0.88100000000000001          1.4817006652433737E-006
  0.88400000000000012          1.7762701494899894E-006
  0.88700000000000001          2.0294861265423438E-006
  0.89000000000000012          2.2438056065910907E-006
  0.89300000000000002          2.4217876606671777E-006
  0.89600000000000013          2.5660375722191672E-006
  0.89900000000000002          2.6791626437178480E-006
  0.90200000000000014          2.7637639822249361E-006
  0.90500000000000003          2.8223933020533549E-006
  0.90800000000000014          2.8575341795305659E-006
  0.91100000000000003          2.8716303981668991E-006
  0.91400000000000015          2.8670294699671082E-006
  0.91700000000000004          2.8459696873263489E-006
  0.92000000000000015          2.8105769620436763E-006
  0.92300000000000004          2.7628465727302169E-006
  0.92600000000000016          2.7046309435342559E-006
  0.92900000000000005          2.6376523354948411E-006
  0.93200000000000016          2.5635099920343403E-006
  0.93500000000000005          2.4836732407914252E-006
  0.93800000000000017          2.3994769756643695E-006
  0.94100000000000006          2.3121187167768664E-006
  0.94400000000000017          2.2226813465312030E-006
  0.94700000000000006          2.1321146721337873E-006
  0.95000000000000018          2.0412507313395454E-006
  0.95300000000000007          1.9508257580857584E-006
  0.95600000000000018          1.8614811783102317E-006
  0.95900000000000007          1.7737446651859866E-006
  0.96200000000000019          1.6880618252215473E-006
  0.96500000000000008          1.6047979188583672E-006
  0.96800000000000019          1.5242369807035071E-006
  0.97100000000000009          1.4465964320152134E-006
  0.97400000000000020          1.3720389824130398E-006
  0.97700000000000009          1.3006900156797448E-006
  0.98000000000000020          1.2326186626675177E-006
  0.98300000000000010          1.1678416059465728E-006
  0.98600000000000021          1.1063442791932858E-006
  0.98900000000000010          1.0480868401545510E-006
  0.99200000000000021          9.9299934367472369E-007
  0.99500000000000011          9.4099620138832591E-007
  0.99800000000000022          8.9198216706982442E-007
   1.0010000000000001          8.4584180668599975E-007
   1.0040000000000002          8.0243499530905694E-007
   1.0070000000000001          7.6161471535541222E-007
   1.0100000000000000          7.2324355342767819E-007
   1.0130000000000001          6.8718871116928778E-007
   1.0160000000000000          6.5331044440457442E-007
   1.0190000000000001          6.2146474740953219E-007
   1.0220000000000000          5.9151179448513746E-007
   1.0250000000000001          5.6330828225372972E-007
   1.0280000000000000          5.3671127656509646E-007
   1.0310000000000001          5.1160751145598000E-007
   1.0340000000000000          4.8790685431971915E-007
   1.0370000000000001          4.6550335229879608E-007
   1.0400000000000000          4.4427201630401267E-007
   1.0430000000000001          4.2410390564765237E-007
   1.0460000000000000          4.0490512289529046E-007
   1.0490000000000002          3.8658158819812477E-007
   1.0520000000000000          3.6906527828010700E-007
   1.0550000000000002          3.5232276317630349E-007
   1.0580000000000001          3.3630112695151189E-007
   1.0610000000000002          3.2091234552952028E-007
   1.0640000000000001          3.0608940763826307E-007
   1.0670000000000002          2.9180270541241814E-007
   1.0700000000000001          2.7801704516743462E-007
   1.0730000000000002          2.6469875482603411E-007
   1.0760000000000001          2.5184736952237322E-007
   1.0790000000000002          2.3945132256698037E-007
   1.0820000000000001          2.2745317092733834E-007
   1.0850000000000002          2.1581547866410416E-007
   1.0880000000000001          2.0455740049534589E-007
   1.0910000000000002          1.9369142782968452E-007
   1.0940000000000001          1.8320285045760506E-007
   1.0970000000000002          1.7310063172841884E-007
