 -0.39999999999999997          0.0000000000000000     
 -0.39699999999999996          0.0000000000000000     
 -0.39399999999999996          0.0000000000000000     
 -0.39099999999999996          0.0000000000000000     
 -0.38799999999999996          0.0000000000000000     
 -0.38499999999999995          0.0000000000000000     
 -0.38199999999999995          0.0000000000000000     
 -0.37899999999999995          0.0000000000000000     
 -0.37599999999999995          0.0000000000000000     
 -0.37299999999999994          0.0000000000000000     
 -0.37000000000000000          0.0000000000000000     
 -0.36699999999999999          0.0000000000000000     
 -0.36399999999999999          0.0000000000000000     
 -0.36099999999999999          0.0000000000000000     
 -0.35799999999999998          0.0000000000000000     
 -0.35499999999999998          0.0000000000000000     
 -0.35199999999999998          0.0000000000000000     
 -0.34899999999999998          0.0000000000000000     
 -0.34599999999999997          0.0000000000000000     
 -0.34299999999999997          0.0000000000000000     
 -0.33999999999999997          0.0000000000000000     
 -0.33699999999999997          0.0000000000000000     
 -0.33399999999999996          0.0000000000000000     
 -0.33099999999999996          0.0000000000000000     
 -0.32799999999999996          0.0000000000000000     
 -0.32499999999999996          0.0000000000000000     
 -0.32199999999999995          0.0000000000000000     
 -0.31899999999999995          0.0000000000000000     
 -0.31599999999999995          0.0000000000000000     
 -0.31299999999999994          0.0000000000000000     
 -0.30999999999999994          0.0000000000000000     
 -0.30699999999999994          0.0000000000000000     
 -0.30399999999999994          0.0000000000000000     
 -0.30099999999999993          0.0000000000000000     
 -0.29799999999999993          0.0000000000000000     
 -0.29499999999999998          0.0000000000000000     
 -0.29199999999999998          0.0000000000000000     
 -0.28899999999999998          0.0000000000000000     
 -0.28599999999999998          0.0000000000000000     
 -0.28299999999999997          0.0000000000000000     
 -0.27999999999999997          0.0000000000000000     
 -0.27699999999999997          0.0000000000000000     
 -0.27399999999999997          0.0000000000000000     
 -0.27099999999999996          0.0000000000000000     
 -0.26799999999999996         -8.2923849048478088E-042
 -0.26499999999999996          2.1119450768475909E-041
 -0.26199999999999996          2.7481003301407328E-042
 -0.25899999999999995         -6.7282054348014102E-041
 -0.25599999999999995          1.5279232976377427E-040
 -0.25300000000000000          8.7009150026297595E-040
 -0.24999999999999997          5.9492183035243014E-040
 -0.24699999999999997         -2.2716892769449858E-039
 -0.24399999999999997          1.4585502279149978E-039
 -0.24099999999999996         -1.1550448551503566E-039
 -0.23799999999999996         -1.3253493465020336E-038
 -0.23499999999999996          1.5166026307180573E-038
 -0.23199999999999996          5.6163110540840937E-038
 -0.22899999999999995         -1.0174243574823547E-037
 -0.22599999999999995         -2.0872986345484871E-037
 -0.22299999999999998          5.3525384721361701E-037
 -0.21999999999999997          6.9922423240412620E-037
 -0.21699999999999997         -2.4156535901391520E-036
 -0.21399999999999997         -2.1738142481498650E-036
 -0.21099999999999997          9.7231108063169216E-036
 -0.20799999999999996          6.5673240558205176E-036
 -0.20499999999999996         -3.5554092917451230E-035
 -0.20199999999999996         -2.0472059738087201E-035
 -0.19899999999999995          1.1896570392366872E-034
 -0.19599999999999995          6.8774525210956920E-035
 -0.19299999999999995         -3.6329550189432850E-034
 -0.18999999999999997         -2.4552796209732954E-034
 -0.18699999999999997          9.9792597579178584E-034
 -0.18399999999999997          8.7612727367816484E-034
 -0.18099999999999997         -2.3813984817112020E-033
 -0.17799999999999996         -2.9234310474440749E-033
 -0.17499999999999996          4.5279524196348384E-033
 -0.17199999999999996          8.6052703073731411E-033
 -0.16899999999999996         -4.8754790155650970E-033
 -0.16599999999999995         -2.0787976014502721E-032
 -0.16299999999999995         -8.0202063252906191E-033
 -0.15999999999999998          3.4486518756619748E-032
 -0.15699999999999997          6.4108318899385527E-032
 -0.15399999999999997         -2.3173972228604315E-033
 -0.15099999999999997         -2.0097323377852594E-031
 -0.14799999999999996         -2.4880463793771607E-031
 -0.14499999999999996          3.3558192479194433E-031
 -0.14199999999999996          1.0916761388708691E-030
 -0.13899999999999996          1.8524107396319912E-031
 -0.13599999999999995         -2.7322384296675796E-030
 -0.13299999999999995         -3.3708181846261102E-030
 -0.12999999999999995          3.1614976466998088E-030
 -0.12699999999999995          1.2088304894325954E-029
 -0.12399999999999994          6.8467246978591962E-030
 -0.12099999999999994         -2.2016248613699562E-029
 -0.11799999999999994         -4.6512488136889989E-029
 -0.11499999999999994         -3.9861828849812250E-030
 -0.11199999999999993          1.1707411748707196E-028
 -0.10899999999999999          1.6573109421082016E-028
 -0.10599999999999998         -8.4439560195987959E-029
 -0.10299999999999998         -5.3790314287068176E-028
  -9.9999999999999978E-002    -5.0700379935078096E-028
  -9.6999999999999975E-002     6.6654173666742980E-028
  -9.3999999999999972E-002     2.1887284741744886E-027
  -9.0999999999999970E-002     1.3922091349361359E-027
  -8.7999999999999967E-002    -3.4948539939412275E-027
  -8.4999999999999964E-002    -8.4682599814680070E-027
  -8.1999999999999962E-002    -3.5046894414053736E-027
  -7.8999999999999959E-002     1.5920119975276726E-026
  -7.5999999999999956E-002     3.1888766266612778E-026
  -7.2999999999999954E-002     7.7440297783101534E-027
  -6.9999999999999951E-002    -6.6442320384791711E-026
  -6.6999999999999948E-002    -1.1782493039844162E-025
  -6.3999999999999946E-002    -1.6105438205488295E-026
  -6.0999999999999943E-002     2.5965710488835011E-025
  -5.7999999999999940E-002     4.3418570803103027E-025
  -5.4999999999999938E-002     4.4493841353966635E-026
  -5.1999999999999935E-002    -9.6583486910558115E-025
  -4.8999999999999932E-002    -1.6037894920962289E-024
  -4.5999999999999985E-002    -2.2083587255835276E-025
  -4.2999999999999983E-002     3.4238944368071064E-024
  -3.9999999999999980E-002     5.9169878636021262E-024
  -3.6999999999999977E-002     1.4060646883941348E-024
  -3.3999999999999975E-002    -1.1483788936522244E-023
  -3.0999999999999972E-002    -2.1650327015650999E-023
  -2.7999999999999969E-002    -8.4609692981415791E-024
  -2.4999999999999967E-002     3.5871910964109405E-023
  -2.1999999999999964E-002     7.7602128547487503E-023
  -1.8999999999999961E-002     4.5358825040000625E-023
  -1.5999999999999959E-002    -1.0083286534053009E-022
  -1.2999999999999956E-002    -2.6809535807530442E-022
  -9.9999999999999534E-003    -2.1799915243723463E-022
  -6.9999999999999507E-003     2.3487582929014821E-022
  -3.9999999999999480E-003     8.7514547950245053E-022
  -9.9999999999994538E-004     9.4760754085523101E-022
   2.0000000000000573E-003    -3.2858572412674761E-022
   5.0000000000000600E-003    -2.6258713509653864E-021
   8.0000000000000626E-003    -3.7337341588917338E-021
   1.1000000000000065E-002    -6.6357885369312465E-022
   1.4000000000000068E-002     6.9117808240025140E-021
   1.7000000000000015E-002     1.3257162304691206E-020
   2.0000000000000018E-002     8.0306123608787497E-021
   2.3000000000000020E-002    -1.4300419046015700E-020
   2.6000000000000023E-002    -4.1693415992855179E-020
   2.9000000000000026E-002    -4.2278053591835273E-020
   3.2000000000000028E-002     1.3604149225971895E-020
   3.5000000000000031E-002     1.1169633239089923E-019
   3.8000000000000034E-002     1.6740720222124109E-019
   4.1000000000000036E-002     6.4014925543156810E-020
   4.4000000000000039E-002    -2.3008658108493945E-019
   4.7000000000000042E-002    -5.3671969022743470E-019
   5.0000000000000044E-002    -4.8432720998461610E-019
   5.3000000000000047E-002     2.2139931472834667E-019
   5.6000000000000050E-002     1.3646265143287984E-018
   5.9000000000000052E-002     1.9947584209552805E-018
   6.2000000000000055E-002     8.6618244726722859E-019
   6.5000000000000058E-002    -2.3753830373075937E-018
   6.8000000000000060E-002    -5.9684979318141294E-018
   7.1000000000000063E-002    -6.1358777048113583E-018
   7.4000000000000066E-002     4.6181034076409101E-019
   7.7000000000000068E-002     1.2638549046191906E-017
   8.0000000000000016E-002     2.2062755727940646E-017
   8.3000000000000018E-002     1.6137554020887919E-017
   8.6000000000000021E-002    -1.2213901619647456E-017
   8.9000000000000024E-002    -5.2584070777817311E-017
   9.2000000000000026E-002    -7.3556637208027598E-017
   9.5000000000000029E-002    -3.7707656356924232E-017
   9.8000000000000032E-002     6.5819072313496023E-017
  0.10100000000000003          1.9011223874491736E-016
  0.10400000000000004          2.3182930344750339E-016
  0.10700000000000004          8.7034499534996113E-017
  0.11000000000000004         -2.5250716220433775E-016
  0.11300000000000004         -6.2326799619886775E-016
  0.11600000000000005         -7.1616859963565415E-016
  0.11900000000000005         -2.4858048243746000E-016
  0.12200000000000005          7.7435971074871112E-016
  0.12500000000000006          1.8759826477792620E-015
  0.12800000000000006          2.2015126879598330E-015
  0.13100000000000006          9.7429910003292098E-016
  0.13400000000000006         -1.8438711166491811E-015
  0.13700000000000007         -5.0914098482089770E-015
  0.14000000000000007         -6.6003654077166544E-015
  0.14300000000000007         -4.2327061237667020E-015
  0.14600000000000007          2.5807480606294175E-015
  0.14900000000000008          1.1648796845482074E-014
  0.15200000000000008          1.8144301111966986E-014
  0.15500000000000008          1.6512558404967480E-014
  0.15800000000000008          3.6393195610046998E-015
  0.16100000000000009         -1.8226698960362077E-014
  0.16400000000000009         -4.0634681361984145E-014
  0.16700000000000009         -5.1319286766735589E-014
  0.17000000000000010         -3.9423436405819948E-014
  0.17300000000000010         -1.5288434643669801E-015
  0.17600000000000010          5.4355006362116146E-014
  0.17899999999999999          1.0915087975343759E-013
  0.18200000000000000          1.3800193870139651E-013
  0.18500000000000000          1.1898281737236926E-013
  0.18800000000000000          4.2284853764079541E-014
  0.19100000000000000         -8.3293767145458833E-014
  0.19400000000000001         -2.2882918997519231E-013
  0.19700000000000001         -3.4960495699866134E-013
  0.20000000000000001         -3.9486767376790573E-013
  0.20300000000000001         -3.2153031176142780E-013
  0.20600000000000002         -1.0936440610145400E-013
  0.20900000000000002          2.2585649450529426E-013
  0.21200000000000002          6.2562742703308025E-013
  0.21500000000000002          9.9252908052938562E-013
  0.21800000000000003          1.2067039339592342E-012
  0.22100000000000003          1.1534043051469744E-012
  0.22400000000000003          7.5588319788983644E-013
  0.22700000000000004          5.1497724811676897E-015
  0.23000000000000004         -1.0218652014728444E-012
  0.23300000000000004         -2.1614077678811404E-012
  0.23600000000000004         -3.1807332521334056E-012
  0.23900000000000005         -3.8123794744316490E-012
  0.24200000000000005         -3.8002446059743118E-012
  0.24500000000000005         -2.9516648129060503E-012
  0.24800000000000005         -1.1885932234924223E-012
  0.25100000000000006          1.4106329720175770E-012
  0.25400000000000006          4.5888674772301243E-012
  0.25700000000000006          7.9164397999015882E-012
  0.26000000000000006          1.0831627580118540E-011
  0.26300000000000007          1.2713778748415257E-011
  0.26600000000000007          1.2979834078135937E-011
  0.26900000000000007          1.1189578198657739E-011
  0.27200000000000008          7.1435552584965727E-012
  0.27500000000000008          9.5980224114243176E-013
  0.27800000000000008         -6.8808695348421537E-012
  0.28100000000000008         -1.5528744967759540E-011
  0.28400000000000009         -2.3804345284753538E-011
  0.28700000000000009         -3.0287238359959561E-011
  0.29000000000000009         -3.3454257446961971E-011
  0.29300000000000009         -3.1859393164461864E-011
  0.29600000000000010         -2.4338727833051849E-011
  0.29900000000000010         -1.0217149359789962E-011
  0.30200000000000010          1.0508271407962739E-011
  0.30499999999999999          3.7029996831183790E-011
  0.30800000000000000          6.7652515076624071E-011
  0.31100000000000000          9.9784319209272438E-011
  0.31400000000000000          1.3000228611795400E-010
  0.31700000000000000          1.5418535688644833E-010
  0.32000000000000001          1.6770756541332519E-010
  0.32300000000000001          1.6567171998715781E-010
  0.32600000000000001          1.4315790039028163E-010
  0.32900000000000001          9.5454670108278302E-011
  0.33200000000000002          1.8244360243678351E-011
  0.33500000000000002         -9.2285100655399899E-011
  0.33800000000000002         -2.3941670719729538E-010
  0.34100000000000003         -4.2598373977849543E-010
  0.34400000000000003         -6.5455310090230964E-010
  0.34700000000000003         -9.2771671095242755E-010
  0.35000000000000003         -1.2484817251631572E-009
  0.35300000000000004         -1.6207501229019840E-009
  0.35600000000000004         -2.0498632478422870E-009
  0.35900000000000004         -2.5431896228526293E-009
  0.36200000000000004         -3.1107265018181639E-009
  0.36500000000000005         -3.7656907143193478E-009
  0.36800000000000005         -4.5250835410268830E-009
  0.37100000000000005         -5.4102125781143545E-009
  0.37400000000000005         -6.4471722576069904E-009
  0.37700000000000006         -7.6672882832154228E-009
  0.38000000000000006         -9.1075229563881212E-009
  0.38300000000000006         -1.0810895336677688E-008
  0.38600000000000007         -1.2826924044755972E-008
  0.38900000000000007         -1.5212128486595042E-008
  0.39200000000000007         -1.8030620758236143E-008
  0.39500000000000007         -2.1354840784918387E-008
  0.39800000000000008         -2.5266390258623889E-008
  0.40100000000000008         -2.9857075963727890E-008
  0.40400000000000008         -3.5230120332847490E-008
  0.40700000000000008         -4.1501528626556556E-008
  0.41000000000000009         -4.8801690710828219E-008
  0.41300000000000009         -5.7277101097236305E-008
  0.41600000000000009         -6.7092288945103072E-008
  0.41900000000000009         -7.8431824029036654E-008
  0.42200000000000010         -9.1502348602987865E-008
  0.42500000000000010         -1.0653488113300882E-007
  0.42800000000000010         -1.2378681034438141E-007
  0.43100000000000011         -1.4354436209980141E-007
  0.43400000000000000         -1.6612460370202869E-007
  0.43700000000000000         -1.9187734716526355E-007
  0.44000000000000000         -2.2118763327222048E-007
  0.44300000000000000         -2.5447704785821407E-007
  0.44600000000000001         -2.9220580200666044E-007
  0.44900000000000001         -3.3487404214159085E-007
  0.45200000000000001         -3.8302327110031798E-007
  0.45500000000000002         -4.3723715085960138E-007
  0.45800000000000002         -4.9814214020741562E-007
  0.46100000000000002         -5.6640819244145214E-007
  0.46400000000000002         -6.4274852117491499E-007
  0.46700000000000003         -7.2791840913673697E-007
  0.47000000000000003         -8.2271537277703175E-007
  0.47300000000000003         -9.2797652985658656E-007
  0.47600000000000003         -1.0445748865705414E-006
  0.47900000000000004         -1.1734173874952567E-006
  0.48200000000000004         -1.3154398337535327E-006
  0.48500000000000004         -1.4716018318345714E-006
  0.48800000000000004         -1.6428771591940309E-006
  0.49100000000000005         -1.8302505993689486E-006
  0.49400000000000005         -2.0347014572017656E-006
  0.49700000000000005         -2.2571992805197662E-006
  0.50000000000000000         -2.4986888499650157E-006
  0.50300000000000011         -2.7600733362598480E-006
  0.50600000000000001         -3.0422030788096316E-006
  0.50900000000000012         -3.3458533390041088E-006
  0.51200000000000001         -3.6717135909642211E-006
  0.51500000000000012         -4.0203572964595939E-006
  0.51800000000000002         -4.3922284836048892E-006
  0.52100000000000013         -4.7876185634356030E-006
  0.52400000000000002         -5.2066371567918512E-006
  0.52700000000000014         -5.6491925504502881E-006
  0.53000000000000003         -6.1149669192206790E-006
  0.53300000000000014         -6.6033896695447674E-006
  0.53600000000000003         -7.1136159203065235E-006
  0.53900000000000015         -7.6444913071714057E-006
  0.54200000000000004         -8.1945427709000496E-006
  0.54500000000000015         -8.7619575494278137E-006
  0.54800000000000004         -9.3445461608774107E-006
  0.55100000000000016         -9.9397312946267130E-006
  0.55400000000000005         -1.0544548777227741E-005
  0.55700000000000016         -1.1155599555549628E-005
  0.56000000000000005         -1.1769077315414298E-005
  0.56299999999999994         -1.2380746922066914E-005
  0.56600000000000006         -1.2985954886755956E-005
  0.56899999999999995         -1.3579616231315033E-005
  0.57200000000000006         -1.4156238460013928E-005
  0.57499999999999996         -1.4709951120757515E-005
  0.57800000000000007         -1.5234507605566050E-005
  0.58099999999999996         -1.5723341376674296E-005
  0.58400000000000007         -1.6169591499674633E-005
  0.58699999999999997         -1.6566118308945625E-005
  0.59000000000000008         -1.6905633367278283E-005
  0.59299999999999997         -1.7180688144624913E-005
  0.59600000000000009         -1.7383811781861268E-005
  0.59899999999999998         -1.7507518789100461E-005
  0.60200000000000009         -1.7544403164627314E-005
  0.60500000000000020         -1.7487282591044729E-005
  0.60800000000000010         -1.7329166623840271E-005
  0.61100000000000021         -1.7063538652038137E-005
  0.61400000000000010         -1.6684299955998392E-005
  0.61700000000000021         -1.6185924488710654E-005
  0.62000000000000011         -1.5563567957527905E-005
  0.62300000000000022         -1.4813152808159493E-005
  0.62600000000000011         -1.3931496635155932E-005
  0.62900000000000000         -1.2916351883657942E-005
  0.63200000000000012         -1.1766580650344587E-005
  0.63500000000000001         -1.0482132434102110E-005
  0.63800000000000012         -9.0641420253747219E-006
  0.64100000000000001         -7.5151384664366047E-006
  0.64400000000000013         -5.8388653061702166E-006
  0.64700000000000002         -4.0404520427333018E-006
  0.65000000000000013         -2.1264283687899955E-006
  0.65300000000000002         -1.0470603329965209E-007
  0.65600000000000014          2.0153846029504502E-006
  0.65900000000000003          4.2231896596299498E-006
  0.66200000000000014          6.5067416967377178E-006
  0.66500000000000004          8.8528201048813025E-006
  0.66800000000000015          1.1247045617494004E-005
  0.67100000000000004          1.3674027763227106E-005
  0.67400000000000015          1.6117350028576173E-005
  0.67700000000000005          1.8559797042100255E-005
  0.68000000000000016          2.0983499951698129E-005
  0.68300000000000005          2.3370110443488480E-005
  0.68600000000000017          2.5700959761358754E-005
  0.68900000000000006          2.7957231131784847E-005
  0.69200000000000017          3.0120181225055873E-005
  0.69500000000000006          3.2171327016434054E-005
  0.69800000000000018          3.4092634958161121E-005
  0.70100000000000007          3.5866763532190895E-005
  0.70400000000000018          3.7477253983774442E-005
  0.70700000000000007          3.8908718839505303E-005
  0.71000000000000019          4.0146999701052563E-005
  0.71300000000000008          4.1179399346036267E-005
  0.71600000000000019          4.1994820397576253E-005
  0.71900000000000008          4.2583887233048629E-005
  0.72200000000000020          4.2939112351142126E-005
  0.72500000000000009          4.3055007355321241E-005
  0.72800000000000020          4.2928175555302716E-005
  0.73100000000000009          4.2557307493281494E-005
  0.73400000000000021          4.1943293158272385E-005
  0.73700000000000010          4.1089170067845900E-005
  0.74000000000000021          4.0000166692626285E-005
  0.74300000000000010          3.8683626050773812E-005
  0.74600000000000022          3.7148932506816086E-005
  0.74900000000000011          3.5407435092161147E-005
  0.75200000000000022          3.3472333110982097E-005
  0.75500000000000012          3.1358452056569587E-005
  0.75800000000000001          2.9082261831441135E-005
  0.76100000000000012          2.6661533301767752E-005
  0.76400000000000001          2.4115225952089533E-005
  0.76700000000000013          2.1463242172576522E-005
  0.77000000000000002          1.8726236798060107E-005
  0.77300000000000013          1.5925342730267544E-005
  0.77600000000000002          1.3081998475671771E-005
  0.77900000000000014          1.0217733935957287E-005
  0.78200000000000003          7.3538089897218145E-006
  0.78500000000000014          4.5112699483339548E-006
  0.78800000000000003          1.7104266346143534E-006
  0.79100000000000015         -1.0291327700969371E-006
  0.79400000000000004         -3.6889140609175096E-006
  0.79700000000000015         -6.2514997713448427E-006
  0.80000000000000004         -8.7008635849833257E-006
  0.80300000000000016         -1.1022344115364381E-005
  0.80600000000000005         -1.3202886170110000E-005
  0.80900000000000016         -1.5231015439730275E-005
  0.81200000000000006         -1.7097109681263138E-005
  0.81500000000000017         -1.8793173507382735E-005
  0.81800000000000006         -2.0313068681669950E-005
  0.82100000000000017         -2.1652412524739597E-005
  0.82400000000000007         -2.2808673258240891E-005
  0.82700000000000018         -2.3780938993450045E-005
  0.83000000000000007         -2.4570019966738078E-005
  0.83300000000000018         -2.5178369162816786E-005
  0.83600000000000008         -2.5609856353632711E-005
  0.83900000000000019         -2.5869763903202355E-005
  0.84200000000000008         -2.5964577380895913E-005
  0.84500000000000020         -2.5901980442434147E-005
  0.84800000000000009         -2.5690646255179518E-005
  0.85100000000000020         -2.5340138387390727E-005
  0.85400000000000009         -2.4860721592543878E-005
  0.85700000000000021         -2.4263257553654712E-005
  0.86000000000000010         -2.3559001467582148E-005
  0.86300000000000021         -2.2759481338785897E-005
  0.86600000000000010         -2.1876407269485723E-005
  0.86900000000000022         -2.0921518109448267E-005
  0.87200000000000011         -1.9906427416778039E-005
  0.87500000000000022         -1.8842546117420180E-005
  0.87800000000000011         -1.7740959465321852E-005
  0.88100000000000001         -1.6612340231216050E-005
  0.88400000000000012         -1.5466847397759046E-005
  0.88700000000000001         -1.4314096881326616E-005
  0.89000000000000012         -1.3163112795530897E-005
  0.89300000000000002         -1.2022216674672422E-005
  0.89600000000000013         -1.0899004581320697E-005
  0.89900000000000002         -9.8003488537077681E-006
  0.90200000000000014         -8.7323855074580420E-006
  0.90500000000000003         -7.7004626483136506E-006
  0.90800000000000014         -6.7091910262753708E-006
  0.91100000000000003         -5.7624721390809951E-006
  0.91400000000000015         -4.8634963076862876E-006
  0.91700000000000004         -4.0147405543228333E-006
  0.92000000000000015         -3.2180309750233728E-006
  0.92300000000000004         -2.4745798407205003E-006
  0.92600000000000016         -1.7850319066959805E-006
  0.92900000000000005         -1.1494590032749742E-006
  0.93200000000000016         -5.6748313018125941E-007
  0.93500000000000005         -3.8306711242640328E-008
  0.93800000000000017          4.3927037913322916E-007
  0.94100000000000006          8.6678980548694789E-007
  0.94400000000000017          1.2460779484806906E-006
  0.94700000000000006          1.5791856186000980E-006
  0.95000000000000018          1.8683914022188197E-006
  0.95300000000000007          2.1161179620028482E-006
  0.95600000000000018          2.3248840099178024E-006
  0.95900000000000007          2.4972839267332118E-006
  0.96200000000000019          2.6359780507428733E-006
  0.96500000000000008          2.7436114682747580E-006
  0.96800000000000019          2.8228101598365060E-006
  0.97100000000000009          2.8761697601487492E-006
  0.97400000000000020          2.9062263087788167E-006
  0.97700000000000009          2.9154261767957652E-006
  0.98000000000000020          2.9061143592663441E-006
  0.98300000000000010          2.8805419046740249E-006
  0.98600000000000021          2.8408310881964626E-006
  0.98900000000000010          2.7889595390463994E-006
  0.99200000000000021          2.7267808717534270E-006
  0.99500000000000011          2.6560217875143298E-006
  0.99800000000000022          2.5782697756038732E-006
   1.0010000000000001          2.4949821063079210E-006
   1.0040000000000002          2.4074862163725804E-006
   1.0070000000000001          2.3169787942374292E-006
   1.0100000000000000          2.2245266819280599E-006
   1.0130000000000001          2.1310821401472946E-006
   1.0160000000000000          2.0374786309389023E-006
   1.0190000000000001          1.9444507936282861E-006
   1.0220000000000000          1.8526292587551035E-006
   1.0250000000000001          1.7625501312901430E-006
   1.0280000000000000          1.6746495252939662E-006
   1.0310000000000001          1.5892905881624920E-006
   1.0340000000000000          1.5067761406882917E-006
   1.0370000000000001          1.4273385839086209E-006
   1.0400000000000000          1.3511512020518209E-006
   1.0430000000000001          1.2783386508392997E-006
   1.0460000000000000          1.2089753000032843E-006
   1.0490000000000002          1.1430731464844750E-006
   1.0520000000000000          1.0806101003725269E-006
   1.0550000000000002          1.0215601763031870E-006
   1.0580000000000001          9.6586705543849791E-007
   1.0610000000000002          9.1343746087743715E-007
   1.0640000000000001          8.6417238457557404E-007
   1.0670000000000002          8.1796558910607992E-007
   1.0700000000000001          7.7467209670262544E-007
   1.0730000000000002          7.3413380531472230E-007
   1.0760000000000001          6.9622331515203604E-007
   1.0790000000000002          6.6080955047106044E-007
   1.0820000000000001          6.2772919783507292E-007
   1.0850000000000002          5.9682517909122874E-007
   1.0880000000000001          5.6796091924674717E-007
   1.0910000000000002          5.4098412852507266E-007
   1.0940000000000001          5.1573029167956625E-007
   1.0970000000000002          4.9207562117682998E-007
