 -0.39999999999999997          0.0000000000000000     
 -0.39699999999999996          0.0000000000000000     
 -0.39399999999999996          0.0000000000000000     
 -0.39099999999999996          0.0000000000000000     
 -0.38799999999999996          0.0000000000000000     
 -0.38499999999999995          0.0000000000000000     
 -0.38199999999999995          0.0000000000000000     
 -0.37899999999999995          0.0000000000000000     
 -0.37599999999999995          0.0000000000000000     
 -0.37299999999999994          0.0000000000000000     
 -0.37000000000000000          0.0000000000000000     
 -0.36699999999999999          0.0000000000000000     
 -0.36399999999999999          0.0000000000000000     
 -0.36099999999999999          0.0000000000000000     
 -0.35799999999999998          0.0000000000000000     
 -0.35499999999999998          0.0000000000000000     
 -0.35199999999999998          0.0000000000000000     
 -0.34899999999999998          0.0000000000000000     
 -0.34599999999999997          0.0000000000000000     
 -0.34299999999999997          0.0000000000000000     
 -0.33999999999999997          0.0000000000000000     
 -0.33699999999999997          0.0000000000000000     
 -0.33399999999999996          0.0000000000000000     
 -0.33099999999999996          0.0000000000000000     
 -0.32799999999999996          0.0000000000000000     
 -0.32499999999999996          0.0000000000000000     
 -0.32199999999999995          0.0000000000000000     
 -0.31899999999999995          0.0000000000000000     
 -0.31599999999999995          0.0000000000000000     
 -0.31299999999999994          0.0000000000000000     
 -0.30999999999999994          0.0000000000000000     
 -0.30699999999999994          0.0000000000000000     
 -0.30399999999999994          0.0000000000000000     
 -0.30099999999999993          0.0000000000000000     
 -0.29799999999999993          0.0000000000000000     
 -0.29499999999999998          0.0000000000000000     
 -0.29199999999999998          0.0000000000000000     
 -0.28899999999999998          0.0000000000000000     
 -0.28599999999999998          0.0000000000000000     
 -0.28299999999999997          0.0000000000000000     
 -0.27999999999999997          0.0000000000000000     
 -0.27699999999999997          0.0000000000000000     
 -0.27399999999999997          0.0000000000000000     
 -0.27099999999999996          0.0000000000000000     
 -0.26799999999999996          0.0000000000000000     
 -0.26499999999999996          0.0000000000000000     
 -0.26199999999999996          0.0000000000000000     
 -0.25899999999999995          0.0000000000000000     
 -0.25599999999999995          0.0000000000000000     
 -0.25300000000000000          0.0000000000000000     
 -0.24999999999999997          0.0000000000000000     
 -0.24699999999999997          0.0000000000000000     
 -0.24399999999999997          0.0000000000000000     
 -0.24099999999999996          0.0000000000000000     
 -0.23799999999999996          0.0000000000000000     
 -0.23499999999999996          0.0000000000000000     
 -0.23199999999999996          0.0000000000000000     
 -0.22899999999999995          0.0000000000000000     
 -0.22599999999999995          0.0000000000000000     
 -0.22299999999999998          0.0000000000000000     
 -0.21999999999999997          0.0000000000000000     
 -0.21699999999999997          0.0000000000000000     
 -0.21399999999999997          0.0000000000000000     
 -0.21099999999999997          0.0000000000000000     
 -0.20799999999999996          0.0000000000000000     
 -0.20499999999999996          0.0000000000000000     
 -0.20199999999999996          0.0000000000000000     
 -0.19899999999999995          0.0000000000000000     
 -0.19599999999999995          0.0000000000000000     
 -0.19299999999999995          0.0000000000000000     
 -0.18999999999999997          0.0000000000000000     
 -0.18699999999999997          0.0000000000000000     
 -0.18399999999999997          0.0000000000000000     
 -0.18099999999999997          0.0000000000000000     
 -0.17799999999999996          0.0000000000000000     
 -0.17499999999999996          0.0000000000000000     
 -0.17199999999999996          0.0000000000000000     
 -0.16899999999999996          0.0000000000000000     
 -0.16599999999999995          0.0000000000000000     
 -0.16299999999999995          0.0000000000000000     
 -0.15999999999999998          0.0000000000000000     
 -0.15699999999999997          0.0000000000000000     
 -0.15399999999999997          0.0000000000000000     
 -0.15099999999999997          0.0000000000000000     
 -0.14799999999999996          0.0000000000000000     
 -0.14499999999999996          0.0000000000000000     
 -0.14199999999999996          0.0000000000000000     
 -0.13899999999999996          0.0000000000000000     
 -0.13599999999999995          0.0000000000000000     
 -0.13299999999999995          0.0000000000000000     
 -0.12999999999999995          0.0000000000000000     
 -0.12699999999999995          0.0000000000000000     
 -0.12399999999999994          0.0000000000000000     
 -0.12099999999999994          0.0000000000000000     
 -0.11799999999999994          0.0000000000000000     
 -0.11499999999999994          0.0000000000000000     
 -0.11199999999999993          0.0000000000000000     
 -0.10899999999999999          0.0000000000000000     
 -0.10599999999999998          0.0000000000000000     
 -0.10299999999999998          0.0000000000000000     
  -9.9999999999999978E-002     0.0000000000000000     
  -9.6999999999999975E-002     0.0000000000000000     
  -9.3999999999999972E-002     0.0000000000000000     
  -9.0999999999999970E-002     0.0000000000000000     
  -8.7999999999999967E-002     0.0000000000000000     
  -8.4999999999999964E-002     0.0000000000000000     
  -8.1999999999999962E-002     0.0000000000000000     
  -7.8999999999999959E-002     0.0000000000000000     
  -7.5999999999999956E-002     0.0000000000000000     
  -7.2999999999999954E-002     0.0000000000000000     
  -6.9999999999999951E-002     0.0000000000000000     
  -6.6999999999999948E-002     0.0000000000000000     
  -6.3999999999999946E-002     0.0000000000000000     
  -6.0999999999999943E-002     0.0000000000000000     
  -5.7999999999999940E-002     0.0000000000000000     
  -5.4999999999999938E-002     0.0000000000000000     
  -5.1999999999999935E-002     0.0000000000000000     
  -4.8999999999999932E-002     0.0000000000000000     
  -4.5999999999999985E-002     0.0000000000000000     
  -4.2999999999999983E-002     0.0000000000000000     
  -3.9999999999999980E-002     0.0000000000000000     
  -3.6999999999999977E-002     0.0000000000000000     
  -3.3999999999999975E-002     0.0000000000000000     
  -3.0999999999999972E-002     0.0000000000000000     
  -2.7999999999999969E-002     0.0000000000000000     
  -2.4999999999999967E-002     0.0000000000000000     
  -2.1999999999999964E-002     0.0000000000000000     
  -1.8999999999999961E-002     0.0000000000000000     
  -1.5999999999999959E-002     0.0000000000000000     
  -1.2999999999999956E-002     0.0000000000000000     
  -9.9999999999999534E-003     0.0000000000000000     
  -6.9999999999999507E-003     0.0000000000000000     
  -3.9999999999999480E-003     0.0000000000000000     
  -9.9999999999994538E-004     0.0000000000000000     
   2.0000000000000573E-003     0.0000000000000000     
   5.0000000000000600E-003     0.0000000000000000     
   8.0000000000000626E-003     0.0000000000000000     
   1.1000000000000065E-002     0.0000000000000000     
   1.4000000000000068E-002     0.0000000000000000     
   1.7000000000000015E-002     0.0000000000000000     
   2.0000000000000018E-002     0.0000000000000000     
   2.3000000000000020E-002     0.0000000000000000     
   2.6000000000000023E-002     0.0000000000000000     
   2.9000000000000026E-002     0.0000000000000000     
   3.2000000000000028E-002     0.0000000000000000     
   3.5000000000000031E-002     0.0000000000000000     
   3.8000000000000034E-002     0.0000000000000000     
   4.1000000000000036E-002     0.0000000000000000     
   4.4000000000000039E-002     0.0000000000000000     
   4.7000000000000042E-002     0.0000000000000000     
   5.0000000000000044E-002     0.0000000000000000     
   5.3000000000000047E-002     0.0000000000000000     
   5.6000000000000050E-002     0.0000000000000000     
   5.9000000000000052E-002     0.0000000000000000     
   6.2000000000000055E-002     0.0000000000000000     
   6.5000000000000058E-002     0.0000000000000000     
   6.8000000000000060E-002     0.0000000000000000     
   7.1000000000000063E-002     0.0000000000000000     
   7.4000000000000066E-002     0.0000000000000000     
   7.7000000000000068E-002     0.0000000000000000     
   8.0000000000000016E-002     0.0000000000000000     
   8.3000000000000018E-002     0.0000000000000000     
   8.6000000000000021E-002     0.0000000000000000     
   8.9000000000000024E-002     0.0000000000000000     
   9.2000000000000026E-002     0.0000000000000000     
   9.5000000000000029E-002     0.0000000000000000     
   9.8000000000000032E-002     0.0000000000000000     
  0.10100000000000003          0.0000000000000000     
  0.10400000000000004          0.0000000000000000     
  0.10700000000000004          0.0000000000000000     
  0.11000000000000004          0.0000000000000000     
  0.11300000000000004          0.0000000000000000     
  0.11600000000000005          0.0000000000000000     
  0.11900000000000005          0.0000000000000000     
  0.12200000000000005          0.0000000000000000     
  0.12500000000000006          0.0000000000000000     
  0.12800000000000006          0.0000000000000000     
  0.13100000000000006          0.0000000000000000     
  0.13400000000000006          0.0000000000000000     
  0.13700000000000007          0.0000000000000000     
  0.14000000000000007          0.0000000000000000     
  0.14300000000000007          0.0000000000000000     
  0.14600000000000007          0.0000000000000000     
  0.14900000000000008          0.0000000000000000     
  0.15200000000000008          0.0000000000000000     
  0.15500000000000008          0.0000000000000000     
  0.15800000000000008          0.0000000000000000     
  0.16100000000000009          0.0000000000000000     
  0.16400000000000009          0.0000000000000000     
  0.16700000000000009          0.0000000000000000     
  0.17000000000000010          0.0000000000000000     
  0.17300000000000010          0.0000000000000000     
  0.17600000000000010          0.0000000000000000     
  0.17899999999999999          0.0000000000000000     
  0.18200000000000000          0.0000000000000000     
  0.18500000000000000          0.0000000000000000     
  0.18800000000000000          0.0000000000000000     
  0.19100000000000000          0.0000000000000000     
  0.19400000000000001          0.0000000000000000     
  0.19700000000000001          0.0000000000000000     
  0.20000000000000001          0.0000000000000000     
  0.20300000000000001          0.0000000000000000     
  0.20600000000000002          0.0000000000000000     
  0.20900000000000002          0.0000000000000000     
  0.21200000000000002          0.0000000000000000     
  0.21500000000000002          0.0000000000000000     
  0.21800000000000003          0.0000000000000000     
  0.22100000000000003          0.0000000000000000     
  0.22400000000000003          0.0000000000000000     
  0.22700000000000004          0.0000000000000000     
  0.23000000000000004          0.0000000000000000     
  0.23300000000000004          0.0000000000000000     
  0.23600000000000004          0.0000000000000000     
  0.23900000000000005          0.0000000000000000     
  0.24200000000000005          0.0000000000000000     
  0.24500000000000005          0.0000000000000000     
  0.24800000000000005          0.0000000000000000     
  0.25100000000000006          0.0000000000000000     
  0.25400000000000006          0.0000000000000000     
  0.25700000000000006          0.0000000000000000     
  0.26000000000000006          0.0000000000000000     
  0.26300000000000007          0.0000000000000000     
  0.26600000000000007          0.0000000000000000     
  0.26900000000000007          0.0000000000000000     
  0.27200000000000008          0.0000000000000000     
  0.27500000000000008          0.0000000000000000     
  0.27800000000000008          0.0000000000000000     
  0.28100000000000008          0.0000000000000000     
  0.28400000000000009          0.0000000000000000     
  0.28700000000000009          0.0000000000000000     
  0.29000000000000009          0.0000000000000000     
  0.29300000000000009          0.0000000000000000     
  0.29600000000000010          0.0000000000000000     
  0.29900000000000010          0.0000000000000000     
  0.30200000000000010          0.0000000000000000     
  0.30499999999999999          0.0000000000000000     
  0.30800000000000000          0.0000000000000000     
  0.31100000000000000          0.0000000000000000     
  0.31400000000000000          0.0000000000000000     
  0.31700000000000000          0.0000000000000000     
  0.32000000000000001          0.0000000000000000     
  0.32300000000000001          0.0000000000000000     
  0.32600000000000001          0.0000000000000000     
  0.32900000000000001          0.0000000000000000     
  0.33200000000000002          0.0000000000000000     
  0.33500000000000002          0.0000000000000000     
  0.33800000000000002          0.0000000000000000     
  0.34100000000000003          0.0000000000000000     
  0.34400000000000003          0.0000000000000000     
  0.34700000000000003          0.0000000000000000     
  0.35000000000000003          0.0000000000000000     
  0.35300000000000004          0.0000000000000000     
  0.35600000000000004          0.0000000000000000     
  0.35900000000000004          0.0000000000000000     
  0.36200000000000004          0.0000000000000000     
  0.36500000000000005          0.0000000000000000     
  0.36800000000000005          0.0000000000000000     
  0.37100000000000005          0.0000000000000000     
  0.37400000000000005          0.0000000000000000     
  0.37700000000000006          0.0000000000000000     
  0.38000000000000006          0.0000000000000000     
  0.38300000000000006          0.0000000000000000     
  0.38600000000000007          0.0000000000000000     
  0.38900000000000007          0.0000000000000000     
  0.39200000000000007          0.0000000000000000     
  0.39500000000000007          0.0000000000000000     
  0.39800000000000008          0.0000000000000000     
  0.40100000000000008          0.0000000000000000     
  0.40400000000000008          0.0000000000000000     
  0.40700000000000008          0.0000000000000000     
  0.41000000000000009          0.0000000000000000     
  0.41300000000000009          0.0000000000000000     
  0.41600000000000009          0.0000000000000000     
  0.41900000000000009          0.0000000000000000     
  0.42200000000000010          0.0000000000000000     
  0.42500000000000010          0.0000000000000000     
  0.42800000000000010          0.0000000000000000     
  0.43100000000000011          0.0000000000000000     
  0.43400000000000000          0.0000000000000000     
  0.43700000000000000          0.0000000000000000     
  0.44000000000000000          0.0000000000000000     
  0.44300000000000000          0.0000000000000000     
  0.44600000000000001          0.0000000000000000     
  0.44900000000000001          0.0000000000000000     
  0.45200000000000001          0.0000000000000000     
  0.45500000000000002          0.0000000000000000     
  0.45800000000000002          0.0000000000000000     
  0.46100000000000002          0.0000000000000000     
  0.46400000000000002          0.0000000000000000     
  0.46700000000000003          0.0000000000000000     
  0.47000000000000003          0.0000000000000000     
  0.47300000000000003          0.0000000000000000     
  0.47600000000000003          0.0000000000000000     
  0.47900000000000004          0.0000000000000000     
  0.48200000000000004          0.0000000000000000     
  0.48500000000000004          0.0000000000000000     
  0.48800000000000004          0.0000000000000000     
  0.49100000000000005          0.0000000000000000     
  0.49400000000000005          0.0000000000000000     
  0.49700000000000005          0.0000000000000000     
  0.50000000000000000          0.0000000000000000     
  0.50300000000000011          0.0000000000000000     
  0.50600000000000001          0.0000000000000000     
  0.50900000000000012          0.0000000000000000     
  0.51200000000000001          0.0000000000000000     
  0.51500000000000012          0.0000000000000000     
  0.51800000000000002          0.0000000000000000     
  0.52100000000000013          0.0000000000000000     
  0.52400000000000002          0.0000000000000000     
  0.52700000000000014          0.0000000000000000     
  0.53000000000000003          0.0000000000000000     
  0.53300000000000014          0.0000000000000000     
  0.53600000000000003          0.0000000000000000     
  0.53900000000000015          0.0000000000000000     
  0.54200000000000004          0.0000000000000000     
  0.54500000000000015          0.0000000000000000     
  0.54800000000000004          0.0000000000000000     
  0.55100000000000016          0.0000000000000000     
  0.55400000000000005          0.0000000000000000     
  0.55700000000000016          0.0000000000000000     
  0.56000000000000005          0.0000000000000000     
  0.56299999999999994          0.0000000000000000     
  0.56600000000000006          0.0000000000000000     
  0.56899999999999995          0.0000000000000000     
  0.57200000000000006          0.0000000000000000     
  0.57499999999999996          0.0000000000000000     
  0.57800000000000007          0.0000000000000000     
  0.58099999999999996          0.0000000000000000     
  0.58400000000000007          0.0000000000000000     
  0.58699999999999997         -3.6076580276779413E-040
  0.59000000000000008         -4.1030815499986169E-040
  0.59299999999999997         -3.0313375923462727E-040
  0.59600000000000009         -1.0640249919288738E-041
  0.59899999999999998          3.2872091045480659E-041
  0.60200000000000009          7.1894150223496968E-040
  0.60500000000000020          1.2648423074097004E-039
  0.60800000000000010          1.6267438543153963E-039
  0.61100000000000021          1.8009127841894709E-039
  0.61400000000000010          1.3169780619955115E-039
  0.61700000000000021         -1.2819196528666178E-039
  0.62000000000000011         -3.6162274310158534E-039
  0.62300000000000022         -6.1617750955412605E-039
  0.62600000000000011         -8.0801486313755545E-039
  0.62900000000000000         -8.9379755335980388E-039
  0.63200000000000012         -7.4534196088256681E-039
  0.63500000000000001         -4.0139136897160985E-039
  0.63800000000000012         -1.1611408941714665E-038
  0.64100000000000001         -5.5761982940521628E-039
  0.64400000000000013          6.9118925149826624E-039
  0.64700000000000002          2.3679269719708700E-038
  0.65000000000000013          3.8740420074650421E-038
  0.65300000000000002          5.7358955755191874E-038
  0.65600000000000014          6.6109822841871569E-038
  0.65900000000000003          6.1159326588292393E-038
  0.66200000000000014          3.7515344570378989E-038
  0.66500000000000004         -8.1898609035100766E-039
  0.66800000000000015         -7.3989620164531896E-038
  0.67100000000000004         -1.5013002877672649E-037
  0.67400000000000015         -2.2753686758917742E-037
  0.67700000000000005         -2.8146841064776859E-037
  0.68000000000000016         -2.8904613752773330E-037
  0.68300000000000005         -2.2684252532165719E-037
  0.68600000000000017         -7.7855673356682092E-038
  0.68900000000000006          1.6102755524487770E-037
  0.69200000000000017          4.7125966470769944E-037
  0.69500000000000006          8.0839261576016517E-037
  0.69800000000000018          1.1016057540218137E-036
  0.70100000000000007          1.2589526066556430E-036
  0.70400000000000018          1.1803491096330579E-036
  0.70700000000000007          7.7884756151949985E-037
  0.71000000000000019          6.9536986471449188E-039
  0.71300000000000008         -1.1148289473672909E-036
  0.71600000000000019         -2.4740886957666181E-036
  0.71900000000000008         -3.8525335747200496E-036
  0.72200000000000020         -4.9329375958326715E-036
  0.72500000000000009         -5.3315247413720379E-036
  0.72800000000000020         -4.6591677884605436E-036
  0.73100000000000009         -2.6088953384746938E-036
  0.73400000000000021          9.3866259098695084E-037
  0.73700000000000010          5.8094153311722775E-036
  0.74000000000000021          1.1454307705883767E-035
  0.74300000000000010          1.6919344897803003E-035
  0.74600000000000022          2.0894221485060218E-035
  0.74900000000000011          2.1860195535896174E-035
  0.75200000000000022          1.8344768325235434E-035
  0.75500000000000012          9.2670285228741146E-036
  0.75800000000000001         -5.6671342155331305E-036
  0.76100000000000012         -2.5585241269165053E-035
  0.76400000000000001         -4.8173553642268889E-035
  0.76700000000000013         -6.9608111892476603E-035
  0.77000000000000002         -8.4785080494659643E-035
  0.77300000000000013         -8.7913773211972930E-035
  0.77600000000000002         -7.3484438291450108E-035
  0.77900000000000014         -3.7548457162748768E-035
  0.78200000000000003          2.0843795172123546E-035
  0.78500000000000014          9.8289933026551461E-035
  0.78800000000000003          1.8607968261396235E-034
  0.79100000000000015          2.6998233217284668E-034
  0.79400000000000004          3.3109514917945301E-034
  0.79700000000000015          3.4796904135725955E-034
  0.80000000000000004          3.0003791962403911E-034
  0.80300000000000016          1.7213629654710051E-034
  0.80600000000000005         -4.0425778713188369E-035
  0.80900000000000016         -3.2703569817789866E-034
  0.81200000000000006         -6.5826890919848643E-034
  0.81500000000000017         -9.8484942675528556E-034
  0.81800000000000006         -1.2401700626227065E-033
  0.82100000000000017         -1.3471255720380755E-033
  0.82400000000000007         -1.2294323462580338E-033
  0.82700000000000018         -8.2680021331671926E-034
  0.83000000000000007         -1.1235666002865593E-034
  0.83300000000000018          8.9026029344665833E-034
  0.83600000000000008          2.0935207903228625E-033
  0.83900000000000019          3.3401546111165458E-033
  0.84200000000000008          4.4084996846760929E-033
  0.84500000000000020          5.0318731052030546E-033
  0.84800000000000009          4.9329739423091201E-033
  0.85100000000000020          3.8720757186618853E-033
  0.85400000000000009          1.7045466163691506E-033
  0.85700000000000021         -1.5598134025786898E-033
  0.86000000000000010         -5.7056325140894396E-033
  0.86300000000000021         -1.0281534084839038E-032
  0.86600000000000010         -1.4602345276730925E-032
  0.86900000000000022         -1.7794250525731210E-032
  0.87200000000000011         -1.8888881997162058E-032
  0.87500000000000022         -1.6965246536822457E-032
  0.87800000000000011         -1.1329590955434653E-032
  0.88100000000000001         -1.7137325752104162E-033
  0.88400000000000012          1.1537309031036556E-032
  0.88700000000000001          2.7324302605868874E-032
  0.89000000000000012          4.3738946986700944E-032
  0.89300000000000002          5.8131703906450974E-032
  0.89600000000000013          6.7328955187020055E-032
  0.89900000000000002          6.8008767820286507E-032
  0.90200000000000014          5.7220769488920700E-032
  0.90500000000000003          3.3006999274316236E-032
  0.90800000000000014         -4.9509843893653284E-033
  0.91100000000000003         -5.4757348306177741E-032
  0.91400000000000015         -1.1191817539517149E-031
  0.91700000000000004         -1.6927136292238574E-031
  0.92000000000000015         -2.1733407494403264E-031
  0.92300000000000004         -2.4513977426724858E-031
  0.92600000000000016         -2.4157259234980703E-031
  0.92900000000000005         -1.9713295017439535E-031
  0.93200000000000016         -1.0597797882692555E-031
  0.93500000000000005          3.2008475962381640E-032
  0.93800000000000017          2.0944077377573688E-031
  0.94100000000000006          4.1031417503665398E-031
  0.94400000000000017          6.0992060376610546E-031
  0.94700000000000006          7.7611289282096922E-031
  0.95000000000000018          8.7210493767506608E-031
  0.95300000000000007          8.6082891956457903E-031
  0.95600000000000018          7.1062109161122076E-031
  0.95900000000000007          4.0174444683416804E-031
  0.96200000000000019         -6.7004285236402164E-032
  0.96500000000000008         -6.7259006903699964E-031
  0.96800000000000019         -1.3640521505198844E-030
  0.97100000000000009         -2.0619801761240667E-030
  0.97400000000000020         -2.6621035692996414E-030
  0.97700000000000009         -3.0436556869642426E-030
  0.98000000000000020         -3.0825985711694422E-030
  0.98300000000000010         -2.6691304239020752E-030
  0.98600000000000021         -1.7281238836787934E-030
  0.98900000000000010         -2.4027496746660776E-031
  0.99200000000000021          1.7388036337246635E-030
  0.99500000000000011          4.0650255969869013E-030
  0.99800000000000022          6.5012098995414908E-030
   1.0010000000000001          8.7245538107273205E-030
   1.0040000000000002          1.0348477696180359E-029
   1.0070000000000001          1.0959801274599305E-029
   1.0100000000000000          1.0170099716230685E-029
   1.0130000000000001          7.6779557530369699E-030
   1.0160000000000000          3.3364680017131038E-030
   1.0190000000000001         -2.7820769686762837E-030
   1.0220000000000000         -1.0334086323939779E-029
   1.0250000000000001         -1.8675669744094697E-029
   1.0280000000000000         -2.6867256106111406E-029
   1.0310000000000001         -3.3720062258683769E-029
   1.0340000000000000         -3.7889827717152326E-029
   1.0370000000000001         -3.8017583100754180E-029
   1.0400000000000000         -3.2911295152082265E-029
   1.0430000000000001         -2.1755157797437040E-029
   1.0460000000000000         -4.3256440385183183E-030
   1.0490000000000002          1.8812909892227609E-029
   1.0520000000000000          4.6163892881640225E-029
   1.0550000000000002          7.5239374171688386E-029
   1.0580000000000001          1.0261620795955865E-028
   1.0610000000000002          1.2413175632553751E-028
   1.0640000000000001          1.3522948088567139E-028
   1.0670000000000002          1.3145145310073442E-028
   1.0700000000000001          1.0905235354892598E-028
   1.0730000000000002          6.5685682522517141E-029
   1.0760000000000001          1.0977053383839643E-030
   1.0790000000000002         -8.2264685460623501E-029
   1.0820000000000001         -1.7882637502070778E-028
   1.0850000000000002         -2.7974557514283557E-028
   1.0880000000000001         -3.7315400500455159E-028
   1.0910000000000002         -4.4484827354508825E-028
   1.0940000000000001         -4.7946656699938678E-028
   1.0970000000000002         -4.6212571587740722E-028
