 -0.39999999999999997          0.0000000000000000     
 -0.39699999999999996          0.0000000000000000     
 -0.39399999999999996          0.0000000000000000     
 -0.39099999999999996          0.0000000000000000     
 -0.38799999999999996          0.0000000000000000     
 -0.38499999999999995          0.0000000000000000     
 -0.38199999999999995          0.0000000000000000     
 -0.37899999999999995          0.0000000000000000     
 -0.37599999999999995          0.0000000000000000     
 -0.37299999999999994          0.0000000000000000     
 -0.37000000000000000          0.0000000000000000     
 -0.36699999999999999          0.0000000000000000     
 -0.36399999999999999          0.0000000000000000     
 -0.36099999999999999          0.0000000000000000     
 -0.35799999999999998          0.0000000000000000     
 -0.35499999999999998          0.0000000000000000     
 -0.35199999999999998          0.0000000000000000     
 -0.34899999999999998          0.0000000000000000     
 -0.34599999999999997          0.0000000000000000     
 -0.34299999999999997          0.0000000000000000     
 -0.33999999999999997          0.0000000000000000     
 -0.33699999999999997          0.0000000000000000     
 -0.33399999999999996          0.0000000000000000     
 -0.33099999999999996          0.0000000000000000     
 -0.32799999999999996          0.0000000000000000     
 -0.32499999999999996          0.0000000000000000     
 -0.32199999999999995          0.0000000000000000     
 -0.31899999999999995          0.0000000000000000     
 -0.31599999999999995          0.0000000000000000     
 -0.31299999999999994          0.0000000000000000     
 -0.30999999999999994          0.0000000000000000     
 -0.30699999999999994          0.0000000000000000     
 -0.30399999999999994          0.0000000000000000     
 -0.30099999999999993          0.0000000000000000     
 -0.29799999999999993          0.0000000000000000     
 -0.29499999999999998          0.0000000000000000     
 -0.29199999999999998          0.0000000000000000     
 -0.28899999999999998          0.0000000000000000     
 -0.28599999999999998          0.0000000000000000     
 -0.28299999999999997          0.0000000000000000     
 -0.27999999999999997          0.0000000000000000     
 -0.27699999999999997          0.0000000000000000     
 -0.27399999999999997          0.0000000000000000     
 -0.27099999999999996          0.0000000000000000     
 -0.26799999999999996          0.0000000000000000     
 -0.26499999999999996          0.0000000000000000     
 -0.26199999999999996          0.0000000000000000     
 -0.25899999999999995          0.0000000000000000     
 -0.25599999999999995          0.0000000000000000     
 -0.25300000000000000          0.0000000000000000     
 -0.24999999999999997          0.0000000000000000     
 -0.24699999999999997          0.0000000000000000     
 -0.24399999999999997          0.0000000000000000     
 -0.24099999999999996          0.0000000000000000     
 -0.23799999999999996          0.0000000000000000     
 -0.23499999999999996          0.0000000000000000     
 -0.23199999999999996          0.0000000000000000     
 -0.22899999999999995          0.0000000000000000     
 -0.22599999999999995          0.0000000000000000     
 -0.22299999999999998          0.0000000000000000     
 -0.21999999999999997          0.0000000000000000     
 -0.21699999999999997          0.0000000000000000     
 -0.21399999999999997          0.0000000000000000     
 -0.21099999999999997          0.0000000000000000     
 -0.20799999999999996          0.0000000000000000     
 -0.20499999999999996          0.0000000000000000     
 -0.20199999999999996          2.1996918750414838E-041
 -0.19899999999999995          2.1171137866207524E-041
 -0.19599999999999995         -1.2721952454627178E-041
 -0.19299999999999995          5.8985724970894805E-041
 -0.18999999999999997         -1.6566907314824836E-040
 -0.18699999999999997         -3.2904254209889494E-040
 -0.18399999999999997          1.2536745673538026E-040
 -0.18099999999999997         -2.0704170856066736E-039
 -0.17799999999999996          2.3265670283744940E-039
 -0.17499999999999996         -7.6953895672481056E-039
 -0.17199999999999996         -2.8464770707481414E-039
 -0.16899999999999996          1.2697355601998652E-038
 -0.16599999999999995          2.1006404275175449E-039
 -0.16299999999999995         -2.1660855382940233E-038
 -0.15999999999999998         -3.5285773025648522E-038
 -0.15699999999999997          1.6444900797110282E-038
 -0.15399999999999997          9.6146816701360704E-038
 -0.15099999999999997          9.4946629538918976E-038
 -0.14799999999999996         -1.7809218925769406E-037
 -0.14499999999999996         -5.5717336129013645E-037
 -0.14199999999999996         -5.3044363435562283E-038
 -0.13899999999999996          1.7145661154338738E-036
 -0.13599999999999995          1.9177306410907054E-036
 -0.13299999999999995         -2.9651136178946174E-036
 -0.12999999999999995         -8.4013809917940188E-036
 -0.12699999999999995         -1.2177029865059403E-036
 -0.12399999999999994          2.0911741335118584E-035
 -0.12099999999999994          2.8673369978761606E-035
 -0.11799999999999994         -1.9968836716633522E-035
 -0.11499999999999994         -1.0488340563459528E-034
 -0.11199999999999993         -8.3910358831932873E-035
 -0.10899999999999999          1.8171091908802115E-034
 -0.10599999999999998          4.7635298950128770E-034
 -0.10299999999999998          1.3036031467973008E-034
  -9.9999999999999978E-002    -1.1299756714512560E-033
  -9.6999999999999975E-002    -1.8710572809705561E-033
  -9.3999999999999972E-002     4.8611664596966208E-034
  -9.0999999999999970E-002     5.6590155966229364E-033
  -8.7999999999999967E-002     6.6299607102314677E-033
  -8.4999999999999964E-002    -5.6149378444901931E-033
  -8.1999999999999962E-002    -2.5626406425848099E-032
  -7.8999999999999959E-002    -2.2200844476805104E-032
  -7.5999999999999956E-002     3.5254708274472964E-032
  -7.2999999999999954E-002     1.0994030849746904E-031
  -6.9999999999999951E-002     7.0044666374768361E-032
  -6.6999999999999948E-002    -1.8158124059614274E-031
  -6.3999999999999946E-002    -4.5263178468761004E-031
  -6.0999999999999943E-002    -2.1506994294196518E-031
  -5.7999999999999940E-002     8.3311978299470100E-031
  -5.4999999999999938E-002     1.8232886152290379E-030
  -5.1999999999999935E-002     6.8930922779532324E-031
  -4.8999999999999932E-002    -3.5492389546187724E-030
  -4.5999999999999985E-002    -7.2698532698011378E-030
  -4.2999999999999983E-002    -2.4846761307949359E-030
  -3.9999999999999980E-002     1.4252019409235519E-029
  -3.6999999999999977E-002     2.8771735617325555E-029
  -3.3999999999999975E-002     1.0555743444748154E-029
  -3.0999999999999972E-002    -5.4040633436386290E-029
  -2.7999999999999969E-002    -1.1297558685139601E-028
  -2.4999999999999967E-002    -5.0792891546609568E-029
  -2.1999999999999964E-002     1.9238055534431726E-028
  -1.8999999999999961E-002     4.3761815520379158E-028
  -1.5999999999999959E-002     2.5456322050992078E-028
  -1.2999999999999956E-002    -6.3121923648296788E-028
  -9.9999999999999534E-003    -1.6548715026740501E-027
  -6.9999999999999507E-003    -1.2517910011838668E-027
  -3.9999999999999480E-003     1.8297013704409796E-027
  -9.9999999999994538E-004     6.0249757382352478E-027
   2.0000000000000573E-003     5.8569051903908682E-027
   5.0000000000000600E-003    -4.1776240859687781E-027
   8.0000000000000626E-003    -2.0729624837480203E-026
   1.1000000000000065E-002    -2.5667254647711548E-026
   1.4000000000000068E-002     3.8826232540162389E-027
   1.7000000000000015E-002     6.5597484630953505E-026
   2.0000000000000018E-002     1.0420872208812899E-025
   2.3000000000000020E-002     3.1059425467074249E-026
   2.6000000000000023E-002    -1.8201929916630736E-025
   2.9000000000000026E-002    -3.8700299776164603E-025
   3.2000000000000028E-002    -2.6800559555807294E-025
   3.5000000000000031E-002     3.9403597797103189E-025
   3.8000000000000034E-002     1.2883046836326821E-024
   4.1000000000000036E-002     1.4014278214528220E-024
   4.4000000000000039E-002    -3.5480466920881226E-025
   4.7000000000000042E-002    -3.6979988282608733E-024
   5.0000000000000044E-002    -5.8089342592082630E-024
   5.3000000000000047E-002    -2.3518366913501804E-024
   5.6000000000000050E-002     8.3209457907469674E-024
   5.9000000000000052E-002     1.9984135800775782E-023
   6.2000000000000055E-002     1.8200596467626920E-023
   6.5000000000000058E-002    -9.6107526338285900E-024
   6.8000000000000060E-002    -5.5861199808535669E-023
   7.1000000000000063E-002    -8.1136330801397555E-023
   7.4000000000000066E-002    -3.0731460688053403E-023
   7.7000000000000068E-002     1.1277751292919148E-022
   8.0000000000000016E-002     2.6975130858380063E-022
   8.3000000000000018E-002     2.6216233746892886E-022
   8.6000000000000021E-002    -7.0663312614007008E-023
   8.9000000000000024E-002    -6.6381354584285216E-022
   9.2000000000000026E-002    -1.0819923235479661E-021
   9.5000000000000029E-002    -6.6511798928776800E-022
   9.8000000000000032E-002     9.3253030854482579E-022
  0.10100000000000003          3.0562410402824964E-021
  0.10400000000000004          3.8465429479697118E-021
  0.10700000000000004          1.1686059208409485E-021
  0.11000000000000004         -5.3330300022196328E-021
  0.11300000000000004         -1.2266127487148519E-020
  0.11600000000000005         -1.2742978850579747E-020
  0.11900000000000005         -4.5191278941977330E-022
  0.12200000000000005          2.3440348927719960E-020
  0.12500000000000006          4.5160272572299401E-020
  0.12800000000000006          4.1427378999042439E-020
  0.13100000000000006         -5.7835008917035323E-021
  0.13400000000000006         -8.7904095943970286E-020
  0.13700000000000007         -1.5684757306414273E-019
  0.14000000000000007         -1.3856694075770418E-019
  0.14300000000000007          1.9980185904240155E-020
  0.14600000000000007          2.8836900711629127E-019
  0.14900000000000008          5.1821264500518752E-019
  0.15200000000000008          4.8487431454598880E-019
  0.15500000000000008          2.0901755886272588E-020
  0.15800000000000008         -8.0867355595812990E-019
  0.16100000000000009         -1.6028675535980801E-018
  0.16400000000000009         -1.7176348759127264E-018
  0.16700000000000009         -6.0056194421467858E-019
  0.17000000000000010          1.7427982961712162E-018
  0.17300000000000010          4.4162020085662670E-018
  0.17600000000000010          5.7410080322616774E-018
  0.17899999999999999          3.9606163770296588E-018
  0.18200000000000000         -1.6311502448246436E-018
  0.18500000000000000         -9.6667197710492575E-018
  0.18800000000000000         -1.6481929570074220E-017
  0.19100000000000000         -1.7189254930924763E-017
  0.19400000000000001         -7.9693284710531208E-018
  0.19700000000000001          1.1229597280156155E-017
  0.20000000000000001          3.4918810998273974E-017
  0.20300000000000001          5.2526612869882266E-017
  0.20600000000000002          5.1671127522676710E-017
  0.20900000000000002          2.3617345889026136E-017
  0.21200000000000002         -3.0954920982356940E-017
  0.21500000000000002         -9.8447763552155372E-017
  0.21800000000000003         -1.5342105913502579E-016
  0.22100000000000003         -1.6524848904556293E-016
  0.22400000000000003         -1.0930762653935939E-016
  0.22700000000000004          2.0480978342181997E-017
  0.23000000000000004          2.0237534654922426E-016
  0.23300000000000004          3.8541135942641932E-016
  0.23600000000000004          4.9874505699398702E-016
  0.23900000000000005          4.7131657535980810E-016
  0.24200000000000005          2.5749359953304327E-016
  0.24500000000000005         -1.3886544737232262E-016
  0.24800000000000005         -6.5060807786151956E-016
  0.25100000000000006         -1.1506498162325481E-015
  0.25400000000000006         -1.4749675043585461E-015
  0.25700000000000006         -1.4619055231162514E-015
  0.26000000000000006         -9.9924851667283328E-016
  0.26300000000000007         -6.7573829780852993E-017
  0.26600000000000007          1.2315182416196755E-015
  0.26900000000000007          2.6709132659896209E-015
  0.27200000000000008          3.9215288871020893E-015
  0.27500000000000008          4.6033836918243193E-015
  0.27800000000000008          4.3590046346752291E-015
  0.28100000000000008          2.9395031279993454E-015
  0.28400000000000009          2.8941719106593685E-016
  0.28700000000000009         -3.3868767297899067E-015
  0.29000000000000009         -7.5953940647946869E-015
  0.29300000000000009         -1.1574976558518748E-014
  0.29600000000000010         -1.4380514631007973E-014
  0.29900000000000010         -1.5024951307099890E-014
  0.30200000000000010         -1.2666049386805502E-014
  0.30499999999999999         -6.8125506441404656E-015
  0.30800000000000000          2.4837239256006167E-015
  0.31100000000000000          1.4487497517382022E-014
  0.31400000000000000          2.7727884884895290E-014
  0.31700000000000000          4.0064609243451827E-014
  0.32000000000000001          4.8889971715015389E-014
  0.32300000000000001          5.1465048085371116E-014
  0.32600000000000001          4.5365462458383371E-014
  0.32900000000000001          2.8987022064847349E-014
  0.33200000000000002          2.0402428064564767E-015
  0.33500000000000002         -3.4050725731823036E-014
  0.33800000000000002         -7.5931221050229891E-014
  0.34100000000000003         -1.1835606071737068E-013
  0.34400000000000003         -1.5453663773515375E-013
  0.34700000000000003         -1.7680907179580980E-013
  0.35000000000000003         -1.7759204017595169E-013
  0.35300000000000004         -1.5055449467993798E-013
  0.35600000000000004         -9.1867043404048472E-014
  0.35900000000000004         -1.3749731388528532E-015
  0.36200000000000004          1.1648717126778753E-013
  0.36500000000000005          2.5221667787631521E-013
  0.36800000000000005          3.9134882511447618E-013
  0.37100000000000005          5.1524890014076148E-013
  0.37400000000000005          6.0262145675816268E-013
  0.37700000000000006          6.3168863021908913E-013
  0.38000000000000006          5.8289680179993566E-013
  0.38300000000000006          4.4192344037001165E-013
  0.38600000000000007          2.0267945312246311E-013
  0.38900000000000007         -1.3005802259848491E-013
  0.39200000000000007         -5.3876050557792010E-013
  0.39500000000000007         -9.9237809726314326E-013
  0.39800000000000008         -1.4469789578358203E-012
  0.40100000000000008         -1.8479927855406657E-012
  0.40400000000000008         -2.1341033822548872E-012
  0.40700000000000008         -2.2426658682547939E-012
  0.41000000000000009         -2.1163332711762603E-012
  0.41300000000000009         -1.7103971732316260E-012
  0.41600000000000009         -1.0001841362256637E-012
  0.41900000000000009          1.2264492354645624E-014
  0.42200000000000010          1.2930519026756208E-012
  0.42500000000000010          2.7736232115755827E-012
  0.42800000000000010          4.3509963231613235E-012
  0.43100000000000011          5.8915368161384645E-012
  0.43400000000000000          7.2385181655216539E-012
  0.43700000000000000          8.2233868753853268E-012
  0.44000000000000000          8.6802922906283911E-012
  0.44300000000000000          8.4630519268342398E-012
  0.44600000000000001          7.4634031793902515E-012
  0.44900000000000001          5.6290871634833079E-012
  0.45200000000000001          2.9801304867138840E-012
  0.45500000000000002         -3.7836779111061355E-013
  0.45800000000000002         -4.2486107171788046E-012
  0.46100000000000002         -8.3391178214519534E-012
  0.46400000000000002         -1.2271481224590332E-011
  0.46700000000000003         -1.5595594481489520E-011
  0.47000000000000003         -1.7813475986652230E-011
  0.47300000000000003         -1.8411145885463968E-011
  0.47600000000000003         -1.6897491857761981E-011
  0.47900000000000004         -1.2848321774116063E-011
  0.48200000000000004         -5.9533887971965258E-012
  0.48500000000000004          3.9362712697789096E-012
  0.48800000000000004          1.6763541213744146E-011
  0.49100000000000005          3.2225794684944066E-011
  0.49400000000000005          4.9743447795289336E-011
  0.49700000000000005          6.8438691046065248E-011
  0.50000000000000000          8.7125822682873842E-011
  0.50300000000000011          1.0431374584029697E-010
  0.50600000000000001          1.1822037246369332E-010
  0.50900000000000012          1.2679718487691872E-010
  0.51200000000000001          1.2776137705233075E-010
  0.51500000000000012          1.1863219675859078E-010
  0.51800000000000002          9.6766293248155416E-011
  0.52100000000000013          5.9387512645322072E-011
  0.52400000000000002          3.6044487317640765E-012
  0.52700000000000014         -7.3589180066431204E-011
  0.53000000000000003         -1.7533816800357095E-010
  0.53300000000000014         -3.0497770656906229E-010
  0.53600000000000003         -4.6611975562974303E-010
  0.53900000000000015         -6.6277565439567326E-010
  0.54200000000000004         -8.9952016277398369E-010
  0.54500000000000015         -1.1816957209224537E-009
  0.54800000000000004         -1.5156600653583488E-009
  0.55100000000000016         -1.9090752450349488E-009
  0.55400000000000005         -2.3712358360232203E-009
  0.55700000000000016         -2.9134352757832970E-009
  0.56000000000000005         -3.5493691808839870E-009
  0.56299999999999994         -4.2955684418893855E-009
  0.56600000000000006         -5.1718698168600500E-009
  0.56899999999999995         -6.2019077967349083E-009
  0.57200000000000006         -7.4136481570596959E-009
  0.57499999999999996         -8.8399442988489886E-009
  0.57800000000000007         -1.0519132021836737E-008
  0.58099999999999996         -1.2495657140770766E-008
  0.58400000000000007         -1.4820772084225342E-008
  0.58699999999999997         -1.7553242725188250E-008
  0.59000000000000008         -2.0760167046495934E-008
  0.59299999999999997         -2.4517820264752334E-008
  0.59600000000000009         -2.8912596752444013E-008
  0.59899999999999998         -3.4042043310431618E-008
  0.60200000000000009         -4.0015996364998254E-008
  0.60500000000000020         -4.6957738609547149E-008
  0.60800000000000010         -5.5005430175342934E-008
  0.61100000000000021         -6.4313430261460052E-008
  0.61400000000000010         -7.5053883414382577E-008
  0.61700000000000021         -8.7418328181358285E-008
  0.62000000000000011         -1.0161936495929919E-007
  0.62300000000000022         -1.1789243340275710E-007
  0.62600000000000011         -1.3649763914653394E-007
  0.62900000000000000         -1.5772142799528293E-007
  0.63200000000000012         -1.8187863109734052E-007
  0.63500000000000001         -2.0931400930291036E-007
  0.63800000000000012         -2.4040396438617369E-007
  0.64100000000000001         -2.7555813062171367E-007
  0.64400000000000013         -3.1522064398744194E-007
  0.64700000000000002         -3.5987117304737590E-007
  0.65000000000000013         -4.1002607804283953E-007
  0.65300000000000002         -4.6623830933837032E-007
  0.65600000000000014         -5.2909818232913997E-007
  0.65900000000000003         -5.9923244926400131E-007
  0.66200000000000014         -6.7730371049807429E-007
  0.66500000000000004         -7.6400818057982215E-007
  0.66800000000000015         -8.6007441573822751E-007
  0.67100000000000004         -9.6625935597451968E-007
  0.67400000000000015         -1.0833456258776245E-006
  0.67700000000000005         -1.2121355648045448E-006
  0.68000000000000016         -1.3534463301422153E-006
  0.68300000000000005         -1.5081037483640114E-006
  0.68600000000000017         -1.6769326081599036E-006
  0.68900000000000006         -1.8607484866693662E-006
  0.69200000000000017         -2.0603504036815434E-006
  0.69500000000000006         -2.2765040845031441E-006
  0.69800000000000018         -2.5099341313522087E-006
  0.70100000000000007         -2.7613060586234356E-006
  0.70400000000000018         -3.0312152894779775E-006
  0.70700000000000007         -3.3201665999436994E-006
  0.71000000000000019         -3.6285606409368568E-006
  0.71300000000000008         -3.9566709493970705E-006
  0.71600000000000019         -4.3046319372929171E-006
  0.71900000000000008         -4.6724071638804994E-006
  0.72200000000000020         -5.0597768011071271E-006
  0.72500000000000009         -5.4663194406848472E-006
  0.72800000000000020         -5.8913811533152815E-006
  0.73100000000000009         -6.3340625767542835E-006
  0.73400000000000021         -6.7931949931506452E-006
  0.73700000000000010         -7.2673199710464051E-006
  0.74000000000000021         -7.7546764646066245E-006
  0.74300000000000010         -8.2531717435490668E-006
  0.74600000000000022         -8.7603905568749665E-006
  0.74900000000000011         -9.2735551632533176E-006
  0.75200000000000022         -9.7895384617471115E-006
  0.75500000000000012         -1.0304855162039379E-005
  0.75800000000000001         -1.0815653144680417E-005
  0.76100000000000012         -1.1317714486787050E-005
  0.76400000000000001         -1.1806487024631329E-005
  0.76700000000000013         -1.2277068688183675E-005
  0.77000000000000002         -1.2724245057903967E-005
  0.77300000000000013         -1.3142512424986328E-005
  0.77600000000000002         -1.3526102071477586E-005
  0.77900000000000014         -1.3869032412505662E-005
  0.78200000000000003         -1.4165133639482085E-005
  0.78500000000000014         -1.4408128127308945E-005
  0.78800000000000003         -1.4591632757004645E-005
  0.79100000000000015         -1.4709281133627543E-005
  0.79400000000000004         -1.4754760683551823E-005
  0.79700000000000015         -1.4721897560071399E-005
  0.80000000000000004         -1.4604706231028921E-005
  0.80300000000000016         -1.4397536268879964E-005
  0.80600000000000005         -1.4095071235838454E-005
  0.80900000000000016         -1.3692470852696980E-005
  0.81200000000000006         -1.3185441994092642E-005
  0.81500000000000017         -1.2570324616119243E-005
  0.81800000000000006         -1.1844193045883360E-005
  0.82100000000000017         -1.1004907936011532E-005
  0.82400000000000007         -1.0051232792365458E-005
  0.82700000000000018         -8.9828661161076430E-006
  0.83000000000000007         -7.8005035455260699E-006
  0.83300000000000018         -6.5059778144183371E-006
  0.83600000000000008         -5.1021895020915535E-006
  0.83900000000000019         -3.5932209200435301E-006
  0.84200000000000008         -1.9843472342135550E-006
  0.84500000000000020         -2.8201295999654369E-007
  0.84800000000000009          1.5061130894922907E-006
  0.85100000000000020          3.3712193195636957E-006
  0.85400000000000009          5.3033441141085840E-006
  0.85700000000000021          7.2914642128007661E-006
  0.86000000000000010          9.3234528486843296E-006
  0.86300000000000021          1.1386315517061858E-005
  0.86600000000000010          1.3466187711610571E-005
  0.86900000000000022          1.5548484013133166E-005
  0.87200000000000011          1.7617976408217338E-005
  0.87500000000000022          1.9659018539757799E-005
  0.87800000000000011          2.1655601418841593E-005
  0.88100000000000001          2.3591587332924478E-005
  0.88400000000000012          2.5450789412321033E-005
  0.88700000000000001          2.7217266216420094E-005
  0.89000000000000012          2.8875378804737520E-005
  0.89300000000000002          3.0410035576311864E-005
  0.89600000000000013          3.1806893264519759E-005
  0.89900000000000002          3.3052411338060653E-005
  0.90200000000000014          3.4134160982121685E-005
  0.90500000000000003          3.5040883645328292E-005
  0.90800000000000014          3.5762688129794859E-005
  0.91100000000000003          3.6291149428502905E-005
  0.91400000000000015          3.6619442681242272E-005
  0.91700000000000004          3.6742445945756737E-005
  0.92000000000000015          3.6656812456973222E-005
  0.92300000000000004          3.6361015263861172E-005
  0.92600000000000016          3.5855428135931128E-005
  0.92900000000000005          3.5142305508261738E-005
  0.93200000000000016          3.4225794473019719E-005
  0.93500000000000005          3.3111877900769823E-005
  0.93800000000000017          3.1808352070673651E-005
  0.94100000000000006          3.0324726517888645E-005
  0.94400000000000017          2.8672136487072457E-005
  0.94700000000000006          2.6863206555008605E-005
  0.95000000000000018          2.4911961362458396E-005
  0.95300000000000007          2.2833635237161649E-005
  0.95600000000000018          2.0644484965698910E-005
  0.95900000000000007          1.8361706629539905E-005
  0.96200000000000019          1.6003128599694908E-005
  0.96500000000000008          1.3587085747110747E-005
  0.96800000000000019          1.1132202840221346E-005
  0.97100000000000009          8.6571818914764513E-006
  0.97400000000000020          6.1806650241434248E-006
  0.97700000000000009          3.7208701524513444E-006
  0.98000000000000020          1.2956391015798205E-006
  0.98300000000000010         -1.0778847738974729E-006
  0.98600000000000021         -3.3834352536820770E-006
  0.98900000000000010         -5.6057160540899282E-006
  0.99200000000000021         -7.7305072159480657E-006
  0.99500000000000011         -9.7449385328543777E-006
  0.99800000000000022         -1.1637436418123869E-005
   1.0010000000000001         -1.3397910505652893E-005
   1.0040000000000002         -1.5017709903362808E-005
   1.0070000000000001         -1.6489726490309430E-005
   1.0100000000000000         -1.7808499391154226E-005
   1.0130000000000001         -1.8970054438214946E-005
   1.0160000000000000         -1.9972034610655062E-005
   1.0190000000000001         -2.0813541118208400E-005
   1.0220000000000000         -2.1495216069176023E-005
   1.0250000000000001         -2.2019063244623426E-005
   1.0280000000000000         -2.2388383806876366E-005
   1.0310000000000001         -2.2607750945727770E-005
   1.0340000000000000         -2.2682849578792710E-005
   1.0370000000000001         -2.2620377504058321E-005
   1.0400000000000000         -2.2427884963483127E-005
   1.0430000000000001         -2.2113742181353569E-005
   1.0460000000000000         -2.1686944031077210E-005
   1.0490000000000002         -2.1156974832090391E-005
   1.0520000000000000         -2.0533695247783899E-005
   1.0550000000000002         -1.9827274415378829E-005
   1.0580000000000001         -1.9047981809296582E-005
   1.0610000000000002         -1.8206087816290801E-005
   1.0640000000000001         -1.7311816257038358E-005
   1.0670000000000002         -1.6375186691419660E-005
   1.0700000000000001         -1.5405920800965680E-005
   1.0730000000000002         -1.4413409018044422E-005
   1.0760000000000001         -1.3406607318340647E-005
   1.0790000000000002         -1.2393957011218529E-005
   1.0820000000000001         -1.1383331915829388E-005
   1.0850000000000002         -1.0382027203390837E-005
   1.0880000000000001         -9.3967147928567396E-006
   1.0910000000000002         -8.4334064143420863E-006
   1.0940000000000001         -7.4974607818926454E-006
   1.0970000000000002         -6.5935862092574439E-006
