 -0.39999999999999997          0.0000000000000000     
 -0.39699999999999996          0.0000000000000000     
 -0.39399999999999996          0.0000000000000000     
 -0.39099999999999996          0.0000000000000000     
 -0.38799999999999996          0.0000000000000000     
 -0.38499999999999995          0.0000000000000000     
 -0.38199999999999995          0.0000000000000000     
 -0.37899999999999995          0.0000000000000000     
 -0.37599999999999995          0.0000000000000000     
 -0.37299999999999994          0.0000000000000000     
 -0.37000000000000000          0.0000000000000000     
 -0.36699999999999999          0.0000000000000000     
 -0.36399999999999999          0.0000000000000000     
 -0.36099999999999999          0.0000000000000000     
 -0.35799999999999998          0.0000000000000000     
 -0.35499999999999998          0.0000000000000000     
 -0.35199999999999998          0.0000000000000000     
 -0.34899999999999998          0.0000000000000000     
 -0.34599999999999997          0.0000000000000000     
 -0.34299999999999997          0.0000000000000000     
 -0.33999999999999997          0.0000000000000000     
 -0.33699999999999997          0.0000000000000000     
 -0.33399999999999996          0.0000000000000000     
 -0.33099999999999996          0.0000000000000000     
 -0.32799999999999996          0.0000000000000000     
 -0.32499999999999996          0.0000000000000000     
 -0.32199999999999995          0.0000000000000000     
 -0.31899999999999995          0.0000000000000000     
 -0.31599999999999995          0.0000000000000000     
 -0.31299999999999994          0.0000000000000000     
 -0.30999999999999994          0.0000000000000000     
 -0.30699999999999994          0.0000000000000000     
 -0.30399999999999994          0.0000000000000000     
 -0.30099999999999993          0.0000000000000000     
 -0.29799999999999993          0.0000000000000000     
 -0.29499999999999998          0.0000000000000000     
 -0.29199999999999998          0.0000000000000000     
 -0.28899999999999998          0.0000000000000000     
 -0.28599999999999998          0.0000000000000000     
 -0.28299999999999997          0.0000000000000000     
 -0.27999999999999997          0.0000000000000000     
 -0.27699999999999997          0.0000000000000000     
 -0.27399999999999997          0.0000000000000000     
 -0.27099999999999996          0.0000000000000000     
 -0.26799999999999996          0.0000000000000000     
 -0.26499999999999996          0.0000000000000000     
 -0.26199999999999996          0.0000000000000000     
 -0.25899999999999995          0.0000000000000000     
 -0.25599999999999995          0.0000000000000000     
 -0.25300000000000000          0.0000000000000000     
 -0.24999999999999997          0.0000000000000000     
 -0.24699999999999997          0.0000000000000000     
 -0.24399999999999997          0.0000000000000000     
 -0.24099999999999996          0.0000000000000000     
 -0.23799999999999996          0.0000000000000000     
 -0.23499999999999996          0.0000000000000000     
 -0.23199999999999996          0.0000000000000000     
 -0.22899999999999995          0.0000000000000000     
 -0.22599999999999995          0.0000000000000000     
 -0.22299999999999998          0.0000000000000000     
 -0.21999999999999997          0.0000000000000000     
 -0.21699999999999997          0.0000000000000000     
 -0.21399999999999997          0.0000000000000000     
 -0.21099999999999997          0.0000000000000000     
 -0.20799999999999996          0.0000000000000000     
 -0.20499999999999996          0.0000000000000000     
 -0.20199999999999996          0.0000000000000000     
 -0.19899999999999995          0.0000000000000000     
 -0.19599999999999995          0.0000000000000000     
 -0.19299999999999995          0.0000000000000000     
 -0.18999999999999997          0.0000000000000000     
 -0.18699999999999997          0.0000000000000000     
 -0.18399999999999997          0.0000000000000000     
 -0.18099999999999997          0.0000000000000000     
 -0.17799999999999996          0.0000000000000000     
 -0.17499999999999996          0.0000000000000000     
 -0.17199999999999996          0.0000000000000000     
 -0.16899999999999996          0.0000000000000000     
 -0.16599999999999995          0.0000000000000000     
 -0.16299999999999995          0.0000000000000000     
 -0.15999999999999998          0.0000000000000000     
 -0.15699999999999997          0.0000000000000000     
 -0.15399999999999997          0.0000000000000000     
 -0.15099999999999997          0.0000000000000000     
 -0.14799999999999996          0.0000000000000000     
 -0.14499999999999996          0.0000000000000000     
 -0.14199999999999996         -3.1855656243845605E-042
 -0.13899999999999996         -8.2416819302031179E-043
 -0.13599999999999995          1.5265440607383954E-040
 -0.13299999999999995          1.0304444534104327E-040
 -0.12999999999999995         -3.0501809459655506E-040
 -0.12699999999999995         -5.2938469502238776E-040
 -0.12399999999999994          5.3353153462643094E-041
 -0.12099999999999994          1.5289016695002245E-039
 -0.11799999999999994          1.2512232272778587E-039
 -0.11499999999999994         -3.0996903488106064E-039
 -0.11199999999999993         -7.9884297407881433E-039
 -0.10899999999999999         -5.5063398618904246E-040
 -0.10599999999999998          2.3136543703415025E-038
 -0.10299999999999998          3.2168148813307089E-038
  -9.9999999999999978E-002     2.5895032446873849E-039
  -9.6999999999999975E-002    -1.1071723007196679E-037
  -9.3999999999999972E-002    -1.5346782889811049E-037
  -9.0999999999999970E-002     9.3206488622109251E-038
  -8.7999999999999967E-002     5.4220346316514434E-037
  -8.4999999999999964E-002     5.1756143877340327E-037
  -8.1999999999999962E-002    -7.5760845783006404E-037
  -7.8999999999999959E-002    -2.5058531109050043E-036
  -7.5999999999999956E-002    -1.5478387466828251E-036
  -7.2999999999999954E-002     4.5531150919707140E-036
  -6.9999999999999951E-002     1.0785591539272965E-035
  -6.6999999999999948E-002     3.6332613014968224E-036
  -6.3999999999999946E-002    -2.3251042931408127E-035
  -6.0999999999999943E-002    -4.4227132513382041E-035
  -5.7999999999999940E-002    -5.3125561868221459E-036
  -5.4999999999999938E-002     1.0789382894503514E-034
  -5.1999999999999935E-002     1.7842000267872386E-034
  -4.8999999999999932E-002    -7.0371988547626164E-036
  -4.5999999999999985E-002    -4.7289977609144868E-034
  -4.2999999999999983E-002    -7.1497478643398015E-034
  -3.9999999999999980E-002     9.7607350778812499E-035
  -3.6999999999999977E-002     1.9760346052585813E-033
  -3.3999999999999975E-002     2.8671868387432593E-033
  -3.0999999999999972E-002    -4.4607742017752504E-034
  -2.7999999999999969E-002    -7.9201372627411730E-033
  -2.4999999999999967E-002    -1.1569063174112198E-032
  -2.1999999999999964E-002     1.1131872675653740E-033
  -1.8999999999999961E-002     3.0483461246523102E-032
  -1.5999999999999959E-002     4.6755064521232837E-032
  -1.2999999999999956E-002     1.4200855715728230E-033
  -9.9999999999999534E-003    -1.1189531576814810E-031
  -6.9999999999999507E-003    -1.8752807292081764E-031
  -3.9999999999999480E-003    -3.9071971571092891E-032
  -9.9999999999994538E-004     3.8667517372633284E-031
   2.0000000000000573E-003     7.3740080662993401E-031
   5.0000000000000600E-003     3.1054541391327042E-031
   8.0000000000000626E-003    -1.2282344033542473E-030
   1.1000000000000065E-002    -2.8002840669968074E-030
   1.4000000000000068E-002    -1.8457404863133969E-030
   1.7000000000000015E-002     3.4140428485518614E-030
   2.0000000000000018E-002     1.0095119833571616E-029
   2.3000000000000020E-002     9.3249150782548766E-030
   2.6000000000000023E-002    -7.2692017926692371E-030
   2.9000000000000026E-002    -3.3816458825920731E-029
   3.2000000000000028E-002    -4.1654408943703556E-029
   3.5000000000000031E-002     4.6859007442123999E-030
   3.8000000000000034E-002     1.0194325626560497E-028
   4.1000000000000036E-002     1.6641335875156512E-028
   4.4000000000000039E-002     6.2353806251609845E-029
   4.7000000000000042E-002    -2.6009065761162561E-028
   5.0000000000000044E-002    -5.9220864063543983E-028
   5.3000000000000047E-002    -4.6770933498268700E-028
   5.6000000000000050E-002     4.6946887694780454E-028
   5.9000000000000052E-002     1.8402927479079716E-027
   6.2000000000000055E-002     2.2344116572722160E-027
   6.5000000000000058E-002     5.5550582634199360E-030
   6.8000000000000060E-002    -4.7511280136176973E-027
   7.1000000000000063E-002    -8.4417552576772543E-027
   7.4000000000000066E-002    -4.9997660668910388E-027
   7.7000000000000068E-002     8.7694672375527148E-027
   8.0000000000000016E-002     2.6042623621532217E-026
   8.3000000000000018E-002     2.8378356980294767E-026
   8.6000000000000021E-002    -2.7700940335859690E-027
   8.9000000000000024E-002    -6.2933532375317136E-026
   9.2000000000000026E-002    -1.0724805686741100E-025
   9.5000000000000029E-002    -6.5627109222616793E-026
   9.8000000000000032E-002     9.7001379180640790E-026
  0.10100000000000003          3.0527653512686451E-025
  0.10400000000000004          3.5796974305576964E-025
  0.10700000000000004          4.5235981385553080E-026
  0.11000000000000004         -6.1757874700519471E-025
  0.11300000000000004         -1.2030792676507055E-024
  0.11600000000000005         -9.8363399300351747E-025
  0.11900000000000005          5.2532240546390014E-025
  0.12200000000000005          2.8220561485929231E-024
  0.12500000000000006          4.1162989424840493E-024
  0.12800000000000006          2.1565435584160280E-024
  0.13100000000000006         -3.7727917059254145E-024
  0.13400000000000006         -1.0840942068922806E-023
  0.13700000000000007         -1.2718293856070682E-023
  0.14000000000000007         -3.2330756346720808E-024
  0.14300000000000007          1.7289954602962079E-023
  0.14600000000000007          3.7303490734367506E-023
  0.14900000000000008          3.6771606506039132E-023
  0.15200000000000008          1.6941539966001894E-025
  0.15500000000000008         -6.5300366180220861E-023
  0.15800000000000008         -1.1977113042585317E-022
  0.16100000000000009         -1.0408641514159742E-022
  0.16400000000000009          1.9753738947356391E-023
  0.16700000000000009          2.1926637392986020E-022
  0.17000000000000010          3.7117252053271304E-022
  0.17300000000000010          3.0677668360949939E-022
  0.17600000000000010         -7.3699105411883856E-023
  0.17899999999999999         -6.7059574461091690E-022
  0.18200000000000000         -1.1357859135192008E-021
  0.18500000000000000         -9.9405433775893219E-022
  0.18800000000000000          6.0143090181534646E-023
  0.19100000000000000          1.8182189009448373E-021
  0.19400000000000001          3.3981165533151913E-021
  0.19700000000000001          3.4894457503265372E-021
  0.20000000000000001          1.0452437145648084E-021
  0.20300000000000001         -3.8274869538025557E-021
  0.20600000000000002         -9.2800718914455577E-021
  0.20900000000000002         -1.1974562889455026E-020
  0.21200000000000002         -8.4221607001906068E-021
  0.21500000000000002          2.9071476921164380E-021
  0.21800000000000003          1.9613452648810393E-020
  0.22100000000000003          3.4742877237520250E-020
  0.22400000000000003          3.8458500024901610E-020
  0.22700000000000004          2.2090759184506956E-020
  0.23000000000000004         -1.6564360810482607E-020
  0.23300000000000004         -6.8910577076985649E-020
  0.23600000000000004         -1.1477312554436117E-019
  0.23900000000000005         -1.2704745696550947E-019
  0.24200000000000005         -8.1783258868560569E-020
  0.24500000000000005          2.8833277224352976E-020
  0.24800000000000005          1.8545477622047860E-019
  0.25100000000000006          3.3832947619542761E-019
  0.25400000000000006          4.1634775869817509E-019
  0.25700000000000006          3.4911631731031247E-019
  0.26000000000000006          9.7373998268787051E-020
  0.26300000000000007         -3.1807787630886159E-019
  0.26600000000000007         -8.0132312419669539E-019
  0.26900000000000007         -1.1907064354414216E-018
  0.27200000000000008         -1.2966122662742146E-018
  0.27500000000000008         -9.6188590869052153E-019
  0.27800000000000008         -1.2942413764518034E-019
  0.28100000000000008          1.1046465730915435E-018
  0.28400000000000009          2.4736822648252575E-018
  0.28700000000000009          3.5735095254694516E-018
  0.29000000000000009          3.9475709585619232E-018
  0.29300000000000009          3.2111875262665932E-018
  0.29600000000000010          1.1882288250739527E-018
  0.29900000000000010         -1.9754096329203804E-018
  0.30200000000000010         -5.7581487929901898E-018
  0.30499999999999999         -9.2977530090887035E-018
  0.30800000000000000         -1.1526889028409321E-017
  0.31100000000000000         -1.1397656841999117E-017
  0.31400000000000000         -8.1582154962102363E-018
  0.31700000000000000         -1.6240462349563264E-018
  0.32000000000000001          7.6232373604728180E-018
  0.32300000000000001          1.8171923432154752E-017
  0.32600000000000001          2.7892756014563740E-017
  0.32900000000000001          3.4237746564711672E-017
  0.33200000000000002          3.4697101733842437E-017
  0.33500000000000002          2.7350217399694956E-017
  0.33800000000000002          1.1418680728590249E-017
  0.34100000000000003         -1.2285688941306348E-017
  0.34400000000000003         -4.1122211793551664E-017
  0.34700000000000003         -7.0677597300199021E-017
  0.35000000000000003         -9.5165258486707434E-017
  0.35300000000000004         -1.0816750927643715E-016
  0.35600000000000004         -1.0366357237215536E-016
  0.35900000000000004         -7.7230863119492720E-017
  0.36200000000000004         -2.7258540496165581E-017
  0.36500000000000005          4.4022651137108854E-017
  0.36800000000000005          1.2990388936091717E-016
  0.37100000000000005          2.1915364419010400E-016
  0.37400000000000005          2.9672017469506521E-016
  0.37700000000000006          3.4525306442080617E-016
  0.38000000000000006          3.4740839016124810E-016
  0.38300000000000006          2.8876139916667236E-016
  0.38600000000000007          1.6101442183772733E-016
  0.38900000000000007         -3.4947612834843294E-017
  0.39200000000000007         -2.8667839544567890E-016
  0.39500000000000007         -5.6901065059217326E-016
  0.39800000000000008         -8.4462579313878707E-016
  0.40100000000000008         -1.0666758830770545E-015
  0.40400000000000008         -1.1835802218232279E-015
  0.40700000000000008         -1.1457991222611327E-015
  0.41000000000000009         -9.1401448389934105E-016
  0.41300000000000009         -4.6784678255583744E-016
  0.41600000000000009          1.8607764498538841E-016
  0.41900000000000009          1.0080733229809287E-015
  0.42200000000000010          1.9226683734319268E-015
  0.42500000000000010          2.8203954442190903E-015
  0.42800000000000010          3.5648693516475029E-015
  0.43100000000000011          4.0053279962603263E-015
  0.43400000000000000          3.9941613627373915E-015
  0.43700000000000000          3.4081122747618938E-015
  0.44000000000000000          2.1711509002218139E-015
  0.44300000000000000          2.7630644042009269E-016
  0.44600000000000001         -2.1964854946538860E-015
  0.44900000000000001         -5.0698373524928628E-015
  0.45200000000000001         -8.0682999256456430E-015
  0.45500000000000002         -1.0830163747378349E-014
  0.45800000000000002         -1.2932594596264051E-014
  0.46100000000000002         -1.3930164870065301E-014
  0.46400000000000002         -1.3404796005938401E-014
  0.46700000000000003         -1.1023565583322105E-014
  0.47000000000000003         -6.5994162419782014E-015
  0.47300000000000003         -1.4795457040452820E-016
  0.47600000000000003          8.0668078792297351E-015
  0.47900000000000004          1.7505695023181067E-014
  0.48200000000000004          2.7353043392233910E-014
  0.48500000000000004          3.6546990604818418E-014
  0.48800000000000004          4.3844153135601267E-014
  0.49100000000000005          4.7918954587635891E-014
  0.49400000000000005          4.7493524298894113E-014
  0.49700000000000005          4.1491144141557692E-014
  0.50000000000000000          2.9200349837457998E-014
  0.50300000000000011          1.0435322945266243E-014
  0.50600000000000001         -1.4326280840539973E-014
  0.50900000000000012         -4.3846351599976219E-014
  0.51200000000000001         -7.6088799543604860E-014
  0.51500000000000012         -1.0825786760088262E-013
  0.51800000000000002         -1.3692219151142928E-013
  0.52100000000000013         -1.5822982330030908E-013
  0.52400000000000002         -1.6821003991701874E-013
  0.52700000000000014         -1.6314924627311764E-013
  0.53000000000000003         -1.4001773583532065E-013
  0.53300000000000014         -9.6914287601285892E-014
  0.53600000000000003         -3.3492847995012811E-014
  0.53900000000000015          4.8675252992257782E-014
  0.54200000000000004          1.4585370738433031E-013
  0.54500000000000015          2.5204440033877597E-013
  0.54800000000000004          3.5908498247661592E-013
  0.55100000000000016          4.5696622382362140E-013
  0.55400000000000005          5.3437883877825186E-013
  0.55700000000000016          5.7948392703045266E-013
  0.56000000000000005          5.8088267734367033E-013
  0.56299999999999994          5.2872407989218083E-013
  0.56600000000000006          4.1589365137824006E-013
  0.56899999999999995          2.3919009519069924E-013
  0.57200000000000006          3.7060766723223610E-016
  0.57499999999999996         -2.9302249201105655E-013
  0.57800000000000007         -6.2716250987119352E-013
  0.58099999999999996         -9.8190217145597670E-013
  0.58400000000000007         -1.3312281840145280E-012
  0.58699999999999997         -1.6443011075340010E-012
  0.59000000000000008         -1.8870607516693311E-012
  0.59299999999999997         -2.0243837663598518E-012
  0.59600000000000009         -2.0227037277876217E-012
  0.59899999999999998         -1.8529743656036746E-012
  0.60200000000000009         -1.4937723571509681E-012
  0.60500000000000020         -9.3436745598028634E-013
  0.60800000000000010         -1.7745450957661951E-013
  0.61100000000000021          7.5863052394412058E-013
  0.61400000000000010          1.8385672296203990E-012
  0.61700000000000021          3.0097245072271606E-012
  0.62000000000000011          4.2030806692538221E-012
  0.62300000000000022          5.3355291744036491E-012
  0.62600000000000011          6.3135984904209351E-012
  0.62900000000000000          7.0385489909073140E-012
  0.63200000000000012          7.4126710229580125E-012
  0.63500000000000001          7.3466334254465807E-012
  0.63800000000000012          6.7673462727349938E-012
  0.64100000000000001          5.6261021537295955E-012
  0.64400000000000013          3.9063105778399514E-012
  0.64700000000000002          1.6303330353270096E-012
  0.65000000000000013         -1.1350640330563184E-012
  0.65300000000000002         -4.2753749551426249E-012
  0.65600000000000014         -7.6275885726327288E-012
  0.65900000000000003         -1.0982216996493870E-011
  0.66200000000000014         -1.4088539564179466E-011
  0.66500000000000004         -1.6663257448683276E-011
  0.66800000000000015         -1.8402308297318358E-011
  0.67100000000000004         -1.8995536229078818E-011
  0.67400000000000015         -1.8144111198119327E-011
  0.67700000000000005         -1.5579660325815645E-011
  0.68000000000000016         -1.1084521205822073E-011
  0.68300000000000005         -4.5121073512094462E-012
  0.68600000000000017          4.1932751170500981E-012
  0.68900000000000006          1.4978690253731051E-011
  0.69200000000000017          2.7667427132669900E-011
  0.69500000000000006          4.1947114783292867E-011
  0.69800000000000018          5.7362345908863838E-011
  0.70100000000000007          7.3311273813052479E-011
  0.70400000000000018          8.9047476150819359E-011
  0.70700000000000007          1.0368452186101845E-010
  0.71000000000000019          1.1620611660996204E-010
  0.71300000000000008          1.2547716281408442E-010
  0.71600000000000019          1.3025644768184686E-010
  0.71900000000000008          1.2920910027612993E-010
  0.72200000000000020          1.2091462212318474E-010
  0.72500000000000009          1.0387221667280468E-010
  0.72800000000000020          7.6496891222978776E-011
  0.73100000000000009          3.7109028484815491E-011
  0.73400000000000021         -1.6093901919357913E-011
  0.73700000000000010         -8.5076459057348726E-011
  0.74000000000000021         -1.7201895034404429E-010
  0.74300000000000010         -2.7939865110338948E-010
  0.74600000000000022         -4.1008269135424142E-010
  0.74900000000000011         -5.6744351837785521E-010
  0.75200000000000022         -7.5550465263537847E-010
  0.75500000000000012         -9.7910114040674763E-010
  0.75800000000000001         -1.2440733382526546E-009
  0.76100000000000012         -1.5574745309770956E-009
  0.76400000000000001         -1.9278228538127122E-009
  0.76700000000000013         -2.3653487006756472E-009
  0.77000000000000002         -2.8823131226597372E-009
  0.77300000000000013         -3.4933173370261627E-009
  0.77600000000000002         -4.2156066770382130E-009
  0.77900000000000014         -5.0695456447940569E-009
  0.78200000000000003         -6.0789546633694826E-009
  0.78500000000000014         -7.2716070423655317E-009
  0.78800000000000003         -8.6797080476533558E-009
  0.79100000000000015         -1.0340395404359979E-008
  0.79400000000000004         -1.2296423983255591E-008
  0.79700000000000015         -1.4596701672231306E-008
  0.80000000000000004         -1.7296978766362190E-008
  0.80300000000000016         -2.0460828824758811E-008
  0.80600000000000005         -2.4160167843075764E-008
  0.80900000000000016         -2.8476467655541168E-008
  0.81200000000000006         -3.3501452852329664E-008
  0.81500000000000017         -3.9338241167344017E-008
  0.81800000000000006         -4.6102708866112727E-008
  0.82100000000000017         -5.3924662451758371E-008
  0.82400000000000007         -6.2948663999722043E-008
  0.82700000000000018         -7.3335448714953232E-008
  0.83000000000000007         -8.5264385644668738E-008
  0.83300000000000018         -9.8933239541621278E-008
  0.83600000000000008         -1.1456096352921787E-007
  0.83900000000000019         -1.3238839422166779E-007
  0.84200000000000008         -1.5268014722153286E-007
  0.84500000000000020         -1.7572562026716678E-007
  0.84800000000000009         -2.0183950613922770E-007
  0.85100000000000020         -2.3136571873439992E-007
  0.85400000000000009         -2.6467512200914795E-007
  0.85700000000000021         -3.0216801290508705E-007
  0.86000000000000010         -3.4427374378191392E-007
  0.86300000000000021         -3.9145332276937671E-007
  0.86600000000000010         -4.4419721734498258E-007
  0.86900000000000022         -5.0302233250721773E-007
  0.87200000000000011         -5.6847572279089135E-007
  0.87500000000000022         -6.4113355677823043E-007
  0.87800000000000011         -7.2158962623032166E-007
  0.88100000000000001         -8.1046613066308288E-007
  0.88400000000000012         -9.0840155557803930E-007
  0.88700000000000001         -1.0160483853432399E-006
  0.89000000000000012         -1.1340610805994182E-006
  0.89300000000000002         -1.2631011568086746E-006
  0.89600000000000013         -1.4038299545001427E-006
  0.89900000000000002         -1.5568892677620086E-006
  0.90200000000000014         -1.7228964235664248E-006
  0.90500000000000003         -1.9024493541318617E-006
  0.90800000000000014         -2.0960844270132430E-006
  0.91100000000000003         -2.3042956542713150E-006
  0.91400000000000015         -2.5275028232456126E-006
  0.91700000000000004         -2.7660462007844272E-006
  0.92000000000000015         -3.0201606073930752E-006
  0.92300000000000004         -3.2899585560207928E-006
  0.92600000000000016         -3.5754575937948275E-006
  0.92900000000000005         -3.8764820495173953E-006
  0.93200000000000016         -4.1927096075578190E-006
  0.93500000000000005         -4.5236685953470134E-006
  0.93800000000000017         -4.8686160354875125E-006
  0.94100000000000006         -5.2266278534753670E-006
  0.94400000000000017         -5.5965494799745971E-006
  0.94700000000000006         -5.9770049230550824E-006
  0.95000000000000018         -6.3663055752801942E-006
  0.95300000000000007         -6.7624885289112236E-006
  0.95600000000000018         -7.1633448876970772E-006
  0.95900000000000007         -7.5664019610291844E-006
  0.96200000000000019         -7.9687266441494964E-006
  0.96500000000000008         -8.3672582114266527E-006
  0.96800000000000019         -8.7586017035484431E-006
  0.97100000000000009         -9.1390547842939786E-006
  0.97400000000000020         -9.5045947691182547E-006
  0.97700000000000009         -9.8509770471186147E-006
  0.98000000000000020         -1.0173757584963548E-005
  0.98300000000000010         -1.0468212460284695E-005
  0.98600000000000021         -1.0729467809272451E-005
  0.98900000000000010         -1.0952342537555931E-005
  0.99200000000000021         -1.1131827652456028E-005
  0.99500000000000011         -1.1262687299105342E-005
  0.99800000000000022         -1.1339619217978614E-005
   1.0010000000000001         -1.1357476121905536E-005
   1.0040000000000002         -1.1311280509288332E-005
   1.0070000000000001         -1.1195901972830234E-005
   1.0100000000000000         -1.1006865310245301E-005
   1.0130000000000001         -1.0739636339055115E-005
   1.0160000000000000         -1.0390333433683835E-005
   1.0190000000000001         -9.9553902898627406E-006
   1.0220000000000000         -9.4316768255294243E-006
   1.0250000000000001         -8.8168652708863453E-006
   1.0280000000000000         -8.1092588085644620E-006
   1.0310000000000001         -7.3075845222435022E-006
   1.0340000000000000         -6.4117893699484872E-006
   1.0370000000000001         -5.4224111537519468E-006
   1.0400000000000000         -4.3410599682508178E-006
   1.0430000000000001         -3.1698262373357231E-006
   1.0460000000000000         -1.9124042497525212E-006
   1.0490000000000002         -5.7279438406583310E-007
   1.0520000000000000          8.4326306884508679E-007
   1.0550000000000002          2.3295699722486233E-006
   1.0580000000000001          3.8787356085877174E-006
   1.0610000000000002          5.4824301882541565E-006
   1.0640000000000001          7.1315950552447408E-006
   1.0670000000000002          8.8162489161163751E-006
   1.0700000000000001          1.0525409153496943E-005
   1.0730000000000002          1.2247185132792587E-005
   1.0760000000000001          1.3969719974070560E-005
   1.0790000000000002          1.5680331943034944E-005
   1.0820000000000001          1.7365664794691187E-005
   1.0850000000000002          1.9012391689270811E-005
   1.0880000000000001          2.0607104106340662E-005
   1.0910000000000002          2.2135957299261709E-005
   1.0940000000000001          2.3585455692279638E-005
   1.0970000000000002          2.4942590745031098E-005
