 -0.39999999999999997          0.0000000000000000     
 -0.39699999999999996          0.0000000000000000     
 -0.39399999999999996          0.0000000000000000     
 -0.39099999999999996          0.0000000000000000     
 -0.38799999999999996          0.0000000000000000     
 -0.38499999999999995          0.0000000000000000     
 -0.38199999999999995          0.0000000000000000     
 -0.37899999999999995          0.0000000000000000     
 -0.37599999999999995          0.0000000000000000     
 -0.37299999999999994          0.0000000000000000     
 -0.37000000000000000          0.0000000000000000     
 -0.36699999999999999          0.0000000000000000     
 -0.36399999999999999          0.0000000000000000     
 -0.36099999999999999          0.0000000000000000     
 -0.35799999999999998          0.0000000000000000     
 -0.35499999999999998          0.0000000000000000     
 -0.35199999999999998          0.0000000000000000     
 -0.34899999999999998          0.0000000000000000     
 -0.34599999999999997          0.0000000000000000     
 -0.34299999999999997          0.0000000000000000     
 -0.33999999999999997          0.0000000000000000     
 -0.33699999999999997          0.0000000000000000     
 -0.33399999999999996          0.0000000000000000     
 -0.33099999999999996          0.0000000000000000     
 -0.32799999999999996          0.0000000000000000     
 -0.32499999999999996          0.0000000000000000     
 -0.32199999999999995          0.0000000000000000     
 -0.31899999999999995          0.0000000000000000     
 -0.31599999999999995          0.0000000000000000     
 -0.31299999999999994          0.0000000000000000     
 -0.30999999999999994          0.0000000000000000     
 -0.30699999999999994          0.0000000000000000     
 -0.30399999999999994          0.0000000000000000     
 -0.30099999999999993          0.0000000000000000     
 -0.29799999999999993          0.0000000000000000     
 -0.29499999999999998          0.0000000000000000     
 -0.29199999999999998          0.0000000000000000     
 -0.28899999999999998          0.0000000000000000     
 -0.28599999999999998          0.0000000000000000     
 -0.28299999999999997          0.0000000000000000     
 -0.27999999999999997          0.0000000000000000     
 -0.27699999999999997          0.0000000000000000     
 -0.27399999999999997          0.0000000000000000     
 -0.27099999999999996          0.0000000000000000     
 -0.26799999999999996          0.0000000000000000     
 -0.26499999999999996          0.0000000000000000     
 -0.26199999999999996          0.0000000000000000     
 -0.25899999999999995          0.0000000000000000     
 -0.25599999999999995          0.0000000000000000     
 -0.25300000000000000          0.0000000000000000     
 -0.24999999999999997          0.0000000000000000     
 -0.24699999999999997          0.0000000000000000     
 -0.24399999999999997          0.0000000000000000     
 -0.24099999999999996          0.0000000000000000     
 -0.23799999999999996          0.0000000000000000     
 -0.23499999999999996          0.0000000000000000     
 -0.23199999999999996          0.0000000000000000     
 -0.22899999999999995          0.0000000000000000     
 -0.22599999999999995          0.0000000000000000     
 -0.22299999999999998          0.0000000000000000     
 -0.21999999999999997          0.0000000000000000     
 -0.21699999999999997          0.0000000000000000     
 -0.21399999999999997          0.0000000000000000     
 -0.21099999999999997          0.0000000000000000     
 -0.20799999999999996          0.0000000000000000     
 -0.20499999999999996          0.0000000000000000     
 -0.20199999999999996          0.0000000000000000     
 -0.19899999999999995          0.0000000000000000     
 -0.19599999999999995          0.0000000000000000     
 -0.19299999999999995          0.0000000000000000     
 -0.18999999999999997          0.0000000000000000     
 -0.18699999999999997          0.0000000000000000     
 -0.18399999999999997          0.0000000000000000     
 -0.18099999999999997          0.0000000000000000     
 -0.17799999999999996          0.0000000000000000     
 -0.17499999999999996          0.0000000000000000     
 -0.17199999999999996          0.0000000000000000     
 -0.16899999999999996          0.0000000000000000     
 -0.16599999999999995          0.0000000000000000     
 -0.16299999999999995          0.0000000000000000     
 -0.15999999999999998          0.0000000000000000     
 -0.15699999999999997          0.0000000000000000     
 -0.15399999999999997          0.0000000000000000     
 -0.15099999999999997          0.0000000000000000     
 -0.14799999999999996          0.0000000000000000     
 -0.14499999999999996          0.0000000000000000     
 -0.14199999999999996          0.0000000000000000     
 -0.13899999999999996          0.0000000000000000     
 -0.13599999999999995          0.0000000000000000     
 -0.13299999999999995          0.0000000000000000     
 -0.12999999999999995          0.0000000000000000     
 -0.12699999999999995          0.0000000000000000     
 -0.12399999999999994          0.0000000000000000     
 -0.12099999999999994          0.0000000000000000     
 -0.11799999999999994          0.0000000000000000     
 -0.11499999999999994          0.0000000000000000     
 -0.11199999999999993          0.0000000000000000     
 -0.10899999999999999          0.0000000000000000     
 -0.10599999999999998          0.0000000000000000     
 -0.10299999999999998          0.0000000000000000     
  -9.9999999999999978E-002     0.0000000000000000     
  -9.6999999999999975E-002     0.0000000000000000     
  -9.3999999999999972E-002     0.0000000000000000     
  -9.0999999999999970E-002     0.0000000000000000     
  -8.7999999999999967E-002     0.0000000000000000     
  -8.4999999999999964E-002     0.0000000000000000     
  -8.1999999999999962E-002     0.0000000000000000     
  -7.8999999999999959E-002     0.0000000000000000     
  -7.5999999999999956E-002     0.0000000000000000     
  -7.2999999999999954E-002     0.0000000000000000     
  -6.9999999999999951E-002     0.0000000000000000     
  -6.6999999999999948E-002     0.0000000000000000     
  -6.3999999999999946E-002     0.0000000000000000     
  -6.0999999999999943E-002     0.0000000000000000     
  -5.7999999999999940E-002     0.0000000000000000     
  -5.4999999999999938E-002     0.0000000000000000     
  -5.1999999999999935E-002     0.0000000000000000     
  -4.8999999999999932E-002     0.0000000000000000     
  -4.5999999999999985E-002     0.0000000000000000     
  -4.2999999999999983E-002     0.0000000000000000     
  -3.9999999999999980E-002     0.0000000000000000     
  -3.6999999999999977E-002     0.0000000000000000     
  -3.3999999999999975E-002     0.0000000000000000     
  -3.0999999999999972E-002     0.0000000000000000     
  -2.7999999999999969E-002     0.0000000000000000     
  -2.4999999999999967E-002     0.0000000000000000     
  -2.1999999999999964E-002     0.0000000000000000     
  -1.8999999999999961E-002     0.0000000000000000     
  -1.5999999999999959E-002     0.0000000000000000     
  -1.2999999999999956E-002     0.0000000000000000     
  -9.9999999999999534E-003     0.0000000000000000     
  -6.9999999999999507E-003     0.0000000000000000     
  -3.9999999999999480E-003     0.0000000000000000     
  -9.9999999999994538E-004     0.0000000000000000     
   2.0000000000000573E-003     0.0000000000000000     
   5.0000000000000600E-003     0.0000000000000000     
   8.0000000000000626E-003     0.0000000000000000     
   1.1000000000000065E-002     0.0000000000000000     
   1.4000000000000068E-002     0.0000000000000000     
   1.7000000000000015E-002     0.0000000000000000     
   2.0000000000000018E-002     0.0000000000000000     
   2.3000000000000020E-002     0.0000000000000000     
   2.6000000000000023E-002     0.0000000000000000     
   2.9000000000000026E-002     0.0000000000000000     
   3.2000000000000028E-002     0.0000000000000000     
   3.5000000000000031E-002     0.0000000000000000     
   3.8000000000000034E-002     0.0000000000000000     
   4.1000000000000036E-002     0.0000000000000000     
   4.4000000000000039E-002     0.0000000000000000     
   4.7000000000000042E-002     0.0000000000000000     
   5.0000000000000044E-002     0.0000000000000000     
   5.3000000000000047E-002     0.0000000000000000     
   5.6000000000000050E-002     0.0000000000000000     
   5.9000000000000052E-002     0.0000000000000000     
   6.2000000000000055E-002     0.0000000000000000     
   6.5000000000000058E-002     0.0000000000000000     
   6.8000000000000060E-002     0.0000000000000000     
   7.1000000000000063E-002     0.0000000000000000     
   7.4000000000000066E-002     0.0000000000000000     
   7.7000000000000068E-002     0.0000000000000000     
   8.0000000000000016E-002     0.0000000000000000     
   8.3000000000000018E-002     0.0000000000000000     
   8.6000000000000021E-002     0.0000000000000000     
   8.9000000000000024E-002     0.0000000000000000     
   9.2000000000000026E-002     0.0000000000000000     
   9.5000000000000029E-002     0.0000000000000000     
   9.8000000000000032E-002     0.0000000000000000     
  0.10100000000000003          0.0000000000000000     
  0.10400000000000004          0.0000000000000000     
  0.10700000000000004          0.0000000000000000     
  0.11000000000000004          0.0000000000000000     
  0.11300000000000004          0.0000000000000000     
  0.11600000000000005          0.0000000000000000     
  0.11900000000000005          0.0000000000000000     
  0.12200000000000005          0.0000000000000000     
  0.12500000000000006          0.0000000000000000     
  0.12800000000000006          0.0000000000000000     
  0.13100000000000006          0.0000000000000000     
  0.13400000000000006          0.0000000000000000     
  0.13700000000000007          0.0000000000000000     
  0.14000000000000007          0.0000000000000000     
  0.14300000000000007          0.0000000000000000     
  0.14600000000000007          0.0000000000000000     
  0.14900000000000008          0.0000000000000000     
  0.15200000000000008          0.0000000000000000     
  0.15500000000000008          0.0000000000000000     
  0.15800000000000008          0.0000000000000000     
  0.16100000000000009          0.0000000000000000     
  0.16400000000000009          0.0000000000000000     
  0.16700000000000009          0.0000000000000000     
  0.17000000000000010          0.0000000000000000     
  0.17300000000000010          0.0000000000000000     
  0.17600000000000010          0.0000000000000000     
  0.17899999999999999          0.0000000000000000     
  0.18200000000000000          0.0000000000000000     
  0.18500000000000000          0.0000000000000000     
  0.18800000000000000          0.0000000000000000     
  0.19100000000000000          0.0000000000000000     
  0.19400000000000001          0.0000000000000000     
  0.19700000000000001          0.0000000000000000     
  0.20000000000000001          0.0000000000000000     
  0.20300000000000001          0.0000000000000000     
  0.20600000000000002          0.0000000000000000     
  0.20900000000000002          0.0000000000000000     
  0.21200000000000002          0.0000000000000000     
  0.21500000000000002          0.0000000000000000     
  0.21800000000000003          0.0000000000000000     
  0.22100000000000003          0.0000000000000000     
  0.22400000000000003          0.0000000000000000     
  0.22700000000000004          0.0000000000000000     
  0.23000000000000004          0.0000000000000000     
  0.23300000000000004          0.0000000000000000     
  0.23600000000000004          0.0000000000000000     
  0.23900000000000005          0.0000000000000000     
  0.24200000000000005          0.0000000000000000     
  0.24500000000000005          0.0000000000000000     
  0.24800000000000005          0.0000000000000000     
  0.25100000000000006          0.0000000000000000     
  0.25400000000000006          0.0000000000000000     
  0.25700000000000006          0.0000000000000000     
  0.26000000000000006          0.0000000000000000     
  0.26300000000000007          0.0000000000000000     
  0.26600000000000007          0.0000000000000000     
  0.26900000000000007          0.0000000000000000     
  0.27200000000000008          0.0000000000000000     
  0.27500000000000008          0.0000000000000000     
  0.27800000000000008          0.0000000000000000     
  0.28100000000000008          0.0000000000000000     
  0.28400000000000009          0.0000000000000000     
  0.28700000000000009          0.0000000000000000     
  0.29000000000000009          0.0000000000000000     
  0.29300000000000009          0.0000000000000000     
  0.29600000000000010          0.0000000000000000     
  0.29900000000000010          4.3801987694220000E-043
  0.30200000000000010         -5.6625467822815846E-043
  0.30499999999999999         -1.3974143097775717E-042
  0.30800000000000000          2.1146438810195342E-042
  0.31100000000000000          1.5884888800474084E-042
  0.31400000000000000         -6.8709855684577083E-042
  0.31700000000000000         -5.2019182571299245E-041
  0.32000000000000001         -6.6114568757658244E-041
  0.32300000000000001         -4.7333309897865707E-041
  0.32600000000000001          3.3844458398730330E-042
  0.32900000000000001          1.2667669390653881E-040
  0.33200000000000002          2.7109975984981634E-040
  0.33500000000000002          3.6506940302390242E-040
  0.33800000000000002          2.7244083535595572E-040
  0.34100000000000003         -2.7465710987875646E-040
  0.34400000000000003         -8.4905133515936001E-040
  0.34700000000000003         -1.5072180118022743E-039
  0.35000000000000003         -1.8405442837910982E-039
  0.35300000000000004         -1.5493115961137527E-039
  0.35600000000000004          8.3396932737846500E-040
  0.35900000000000004          3.1825473208871614E-039
  0.36200000000000004          5.9573238150335078E-039
  0.36500000000000005          9.4359921421545276E-039
  0.36800000000000005          2.4199753919374893E-038
  0.37100000000000005          3.3160494513885106E-038
  0.37400000000000005          3.1048600287337076E-038
  0.37700000000000006          1.2930033354244095E-038
  0.38000000000000006         -2.4823287384160907E-038
  0.38300000000000006         -7.8963366199395669E-038
  0.38600000000000007         -1.3471093482882090E-037
  0.38900000000000007         -1.6820937641597168E-037
  0.39200000000000007         -1.4764570812788990E-037
  0.39500000000000007         -4.4150187516149491E-038
  0.39800000000000008          1.5362502732828682E-037
  0.40100000000000008          4.2286004847351645E-037
  0.40400000000000008          6.9444553725480798E-037
  0.40700000000000008          8.5190737040428948E-037
  0.41000000000000009          7.4955695465156884E-037
  0.41300000000000009          2.5579386442385868E-037
  0.41600000000000009         -6.8246931564140664E-037
  0.41900000000000009         -1.9691017850737870E-036
  0.42200000000000010         -3.3039585642746962E-036
  0.42500000000000010         -4.1747751940271671E-036
  0.42800000000000010         -3.9301894718993002E-036
  0.43100000000000011         -1.9528828770290570E-036
  0.43400000000000000          2.0790457251257799E-036
  0.43700000000000000          7.8896782300216630E-036
  0.44000000000000000          1.4349515034488755E-035
  0.44300000000000000          1.9392595102340517E-035
  0.44600000000000001          2.0238533097939492E-035
  0.44900000000000001          1.4006073752766602E-035
  0.45200000000000001         -1.2877236859593016E-036
  0.45500000000000002         -2.5484814192214198E-035
  0.45800000000000002         -5.5109916190427499E-035
  0.46100000000000002         -8.2720244058582714E-035
  0.46400000000000002         -9.7294708347262009E-035
  0.46700000000000003         -8.6084312629583083E-035
  0.47000000000000003         -3.8073223217398727E-035
  0.47300000000000003          5.1270326977873772E-035
  0.47600000000000003          1.7488456914620548E-034
  0.47900000000000004          3.1017534186117684E-034
  0.48200000000000004          4.1816328813639266E-034
  0.48500000000000004          4.4759666144755571E-034
  0.48800000000000004          3.4524116302354311E-034
  0.49100000000000005          7.2171104970089059E-035
  0.49400000000000005         -3.7614119931477130E-034
  0.49700000000000005         -9.5040952605018342E-034
  0.50000000000000000         -1.5352582424765653E-033
  0.50300000000000011         -1.9514679568463169E-033
  0.50600000000000001         -1.9792065377768891E-033
  0.50900000000000012         -1.4053547698354241E-033
  0.51200000000000001         -9.2191062803827163E-035
  0.51500000000000012          1.9430206363846778E-033
  0.51800000000000002          4.4561923647850351E-033
  0.52100000000000013          6.9374245231701536E-033
  0.52400000000000002          8.6318099527457436E-033
  0.52700000000000014          8.6420739845992403E-033
  0.53000000000000003          6.1212720088887928E-033
  0.53300000000000014          5.4187541513477268E-034
  0.53600000000000003         -8.0007955752609762E-033
  0.53900000000000015         -1.8520711107705453E-032
  0.54200000000000004         -2.9000617508476769E-032
  0.54500000000000015         -3.6475358438377690E-032
  0.54800000000000004         -3.7415678406580792E-032
  0.55100000000000016         -2.8440986219072516E-032
  0.55400000000000005         -7.3112989371394853E-033
  0.55700000000000016          2.5946507971149129E-032
  0.56000000000000005          6.8023078838515001E-032
  0.56299999999999994          1.1173890264943982E-031
  0.56600000000000006          1.4622399624016547E-031
  0.56899999999999995          1.5814385737796695E-031
  0.57200000000000006          1.3409699599115663E-031
  0.57499999999999996          6.4056395086257393E-032
  0.57800000000000007         -5.4590164445773787E-032
  0.58099999999999996         -2.1318199176705575E-031
  0.58400000000000007         -3.8915633557545989E-031
  0.58699999999999997         -5.4581206619802732E-031
  0.59000000000000008         -6.3549574969547069E-031
  0.59299999999999997         -6.0680653683182304E-031
  0.59600000000000009         -4.1566491232441217E-031
  0.59899999999999998         -3.9092754654793801E-032
  0.60200000000000009          5.1055406617991587E-031
  0.60500000000000020          1.1741237698099656E-030
  0.60800000000000010          1.8408045254421948E-030
  0.61100000000000021          2.3535495174143697E-030
  0.61400000000000010          2.5274844253731232E-030
  0.61700000000000021          2.1819936584153138E-030
  0.62000000000000011          1.1842251286181450E-030
  0.62300000000000022         -5.0157190103035484E-031
  0.62600000000000011         -2.7680447747389599E-030
  0.62900000000000000         -5.3336462392262224E-030
  0.63200000000000012         -7.7389186021689653E-030
  0.63500000000000001         -9.3811536914988866E-030
  0.63800000000000012         -9.5936338029533569E-030
  0.64100000000000001         -7.7683367205924071E-030
  0.64400000000000013         -3.5108388727178496E-030
  0.64700000000000002          3.1943976970089417E-030
  0.65000000000000013          1.1840439980398216E-029
  0.65300000000000002          2.1314217795669234E-029
  0.65600000000000014          2.9911386755790361E-029
  0.65900000000000003          3.5481255609919981E-029
  0.66200000000000014          3.5716048546388215E-029
  0.66500000000000004          2.8574628008740226E-029
  0.66800000000000015          1.2798871035156986E-029
  0.67100000000000004         -1.1551234669563054E-029
  0.67400000000000015         -4.2645973594993235E-029
  0.67700000000000005         -7.6636891728213099E-029
  0.68000000000000016         -1.0772783494597025E-028
  0.68300000000000005         -1.2865729754240273E-028
  0.68600000000000017         -1.3163163665762844E-028
  0.68900000000000006         -1.0967492883341252E-028
  0.69200000000000017         -5.8266025210490399E-029
  0.69500000000000006          2.2958736609440457E-029
  0.69800000000000018          1.2874396772362734E-028
  0.70100000000000007          2.4734736684305328E-028
  0.70400000000000018          3.6062029076931403E-028
  0.70700000000000007          4.4531623022528294E-028
  0.71000000000000019          4.7576673788400141E-028
  0.71300000000000008          4.2785562702616337E-028
  0.71600000000000019          2.8396520827242194E-028
  0.71900000000000008          3.8284189542644517E-029
  0.72200000000000020         -2.9836943377371457E-028
  0.72500000000000009         -6.9520972339764911E-028
  0.72800000000000020         -1.1006904646107052E-027
  0.73100000000000009         -1.4451486505021821E-027
  0.73400000000000021         -1.6474303164224568E-027
  0.73700000000000010         -1.6255506775316424E-027
  0.74000000000000021         -1.3106972148157795E-027
  0.74300000000000010         -6.6316529071595167E-028
  0.74600000000000022          3.1192883722497457E-028
  0.74900000000000011          1.5518605850105845E-027
  0.75200000000000022          2.9294742598424288E-027
  0.75500000000000012          4.2551174292586773E-027
  0.75800000000000001          5.2895090327645795E-027
  0.76100000000000012          5.7685616426006958E-027
  0.76400000000000001          5.4394563119554804E-027
  0.76700000000000013          4.1052371745930548E-027
  0.77000000000000002          1.6732196611684796E-027
  0.77300000000000013         -1.7994330983039134E-027
  0.77600000000000002         -6.0711096769360513E-027
  0.77900000000000014         -1.0700456063090871E-026
  0.78200000000000003         -1.5058085842243717E-026
  0.78500000000000014         -1.8371002224878169E-026
  0.78800000000000003         -1.9801618513342298E-026
  0.79100000000000015         -1.8558849996853200E-026
  0.79400000000000004         -1.4032979924225896E-026
  0.79700000000000015         -5.9405446430978223E-027
  0.80000000000000004          5.5400312425111754E-027
  0.80300000000000016          1.9664313386551831E-026
  0.80600000000000005          3.5073724911048022E-026
  0.80900000000000016          4.9824666895694816E-026
  0.81200000000000006          6.1511917225499880E-026
  0.81500000000000017          6.7492987730860143E-026
  0.81800000000000006          6.5208135590095513E-026
  0.82100000000000017          5.2575981729470904E-026
  0.82400000000000007          2.8427351869920685E-026
  0.82700000000000018         -7.0732446450989413E-027
  0.83000000000000007         -5.2081137266247771E-026
  0.83300000000000018         -1.0286787009160083E-025
  0.83600000000000008         -1.5382842452315523E-025
  0.83900000000000019         -1.9775093107709846E-025
  0.84200000000000008         -2.2638258788925636E-025
  0.84500000000000020         -2.3129188343104821E-025
  0.84800000000000009         -2.0498554471778039E-025
  0.85100000000000020         -1.4220013057818563E-025
  0.85400000000000009         -4.1231511470519051E-026
  0.85700000000000021          9.4858094557836308E-026
  0.86000000000000010          2.5735419405561253E-025
  0.86300000000000021          4.3152436874639167E-025
  0.86600000000000010          5.9696007834521712E-025
  0.86900000000000022          7.2876297522681489E-025
  0.87200000000000011          7.9964166781563636E-025
  0.87500000000000022          7.8288208772478197E-025
  0.87800000000000011          6.5602642090576065E-025
  0.88100000000000001          4.0498229057200005E-025
  0.88400000000000012          2.8122456061998344E-026
  0.88700000000000001         -4.6013014955897780E-025
  0.89000000000000012         -1.0268604438295841E-024
  0.89300000000000002         -1.6199203986714867E-024
  0.89600000000000013         -2.1694718670163551E-024
  0.89900000000000002         -2.5921838402988298E-024
  0.90200000000000014         -2.7982456386262735E-024
  0.90500000000000003         -2.7010327963485574E-024
  0.90800000000000014         -2.2289332129845010E-024
  0.91100000000000003         -1.3383415898344167E-024
  0.91400000000000015         -2.6644419610650932E-026
  0.91700000000000004          1.6566010387560750E-024
  0.92000000000000015          3.6019295536177484E-024
  0.92300000000000004          5.6376762200418611E-024
  0.92600000000000016          7.5346675641763547E-024
  0.92900000000000005          9.0192147465811047E-024
  0.93200000000000016          9.7948564197253818E-024
  0.93500000000000005          9.5725028470308271E-024
  0.93800000000000017          8.1075080408915621E-024
  0.94100000000000006          5.2409423797850373E-024
  0.94400000000000017          9.4117541499512491E-025
  0.94700000000000006         -4.6589379944885083E-024
  0.95000000000000018         -1.1234965448375690E-023
  0.95300000000000007         -1.8259579925995808E-023
  0.95600000000000018         -2.5012149471905049E-023
  0.95900000000000007         -3.0613680725067346E-023
  0.96200000000000019         -3.4089001023744304E-023
  0.96500000000000008         -3.4456222759030814E-023
  0.96800000000000019         -3.0839541718640883E-023
  0.97100000000000009         -2.2598715754828043E-023
  0.97400000000000020         -9.4635880668130985E-024
  0.97700000000000009          8.3391905067412418E-024
  0.98000000000000020          2.9984231021687449E-023
  0.98300000000000010          5.3988728064627350E-023
  0.98600000000000021          7.8212670410434631E-023
  0.98900000000000010          9.9933891853297421E-023
  0.99200000000000021          1.1600772921892564E-022
  0.99500000000000011          1.2311345731531683E-022
  0.99800000000000022          1.1808293140071941E-022
   1.0010000000000001          9.8294012547768941E-023
   1.0040000000000002          6.2101220441923357E-023
   1.0070000000000001          9.2656877416577201E-024
   1.0100000000000000         -5.8661455325875104E-023
   1.0130000000000001         -1.3805665304575666E-022
   1.0160000000000000         -2.2310300023863747E-022
   1.0190000000000001         -3.0587081286813428E-022
   1.0220000000000000         -3.7665251156752493E-022
   1.0250000000000001         -4.2457058552106099E-022
   1.0280000000000000         -4.3846247838334299E-022
   1.0310000000000001         -4.0801510114418678E-022
   1.0340000000000000         -3.2507923035801419E-022
   1.0370000000000001         -1.8509354663292889E-022
   1.0400000000000000          1.1545683396312085E-023
   1.0430000000000001          2.5828557847562227E-022
   1.0460000000000000          5.4158480261942760E-022
   1.0490000000000002          8.4061028278346853E-022
   1.0520000000000000          1.1276217910208280E-021
   1.0550000000000002          1.3691766899983433E-021
   1.0580000000000001          1.5282110044053010E-021
   1.0610000000000002          1.5670039034998522E-021
   1.0640000000000001          1.4509480674041116E-021
   1.0670000000000002          1.1528667176008423E-021
   1.0700000000000001          6.5764324341534360E-022
   1.0730000000000002         -3.3251465266248227E-023
   1.0760000000000001         -8.9788029637325179E-022
   1.0790000000000002         -1.8910668047773954E-021
   1.0820000000000001         -2.9433210684158898E-021
   1.0850000000000002         -3.9619588357559732E-021
   1.0880000000000001         -4.8348201642620579E-021
   1.0910000000000002         -5.4368243367291397E-021
   1.0940000000000001         -5.6393715468521514E-021
   1.0970000000000002         -5.3223308741246990E-021
