 -0.39999999999999997          0.0000000000000000     
 -0.39699999999999996          0.0000000000000000     
 -0.39399999999999996          0.0000000000000000     
 -0.39099999999999996          0.0000000000000000     
 -0.38799999999999996          0.0000000000000000     
 -0.38499999999999995          0.0000000000000000     
 -0.38199999999999995          0.0000000000000000     
 -0.37899999999999995          0.0000000000000000     
 -0.37599999999999995          0.0000000000000000     
 -0.37299999999999994          0.0000000000000000     
 -0.37000000000000000          0.0000000000000000     
 -0.36699999999999999          0.0000000000000000     
 -0.36399999999999999          0.0000000000000000     
 -0.36099999999999999          0.0000000000000000     
 -0.35799999999999998          0.0000000000000000     
 -0.35499999999999998          0.0000000000000000     
 -0.35199999999999998          0.0000000000000000     
 -0.34899999999999998          0.0000000000000000     
 -0.34599999999999997          0.0000000000000000     
 -0.34299999999999997          0.0000000000000000     
 -0.33999999999999997          0.0000000000000000     
 -0.33699999999999997          0.0000000000000000     
 -0.33399999999999996          0.0000000000000000     
 -0.33099999999999996          0.0000000000000000     
 -0.32799999999999996          0.0000000000000000     
 -0.32499999999999996          0.0000000000000000     
 -0.32199999999999995          0.0000000000000000     
 -0.31899999999999995          0.0000000000000000     
 -0.31599999999999995          0.0000000000000000     
 -0.31299999999999994          0.0000000000000000     
 -0.30999999999999994          0.0000000000000000     
 -0.30699999999999994          0.0000000000000000     
 -0.30399999999999994          0.0000000000000000     
 -0.30099999999999993          0.0000000000000000     
 -0.29799999999999993          0.0000000000000000     
 -0.29499999999999998          0.0000000000000000     
 -0.29199999999999998          0.0000000000000000     
 -0.28899999999999998          0.0000000000000000     
 -0.28599999999999998          0.0000000000000000     
 -0.28299999999999997          0.0000000000000000     
 -0.27999999999999997          0.0000000000000000     
 -0.27699999999999997          0.0000000000000000     
 -0.27399999999999997          0.0000000000000000     
 -0.27099999999999996          0.0000000000000000     
 -0.26799999999999996          0.0000000000000000     
 -0.26499999999999996          0.0000000000000000     
 -0.26199999999999996          0.0000000000000000     
 -0.25899999999999995          0.0000000000000000     
 -0.25599999999999995          0.0000000000000000     
 -0.25300000000000000          0.0000000000000000     
 -0.24999999999999997          0.0000000000000000     
 -0.24699999999999997          0.0000000000000000     
 -0.24399999999999997          0.0000000000000000     
 -0.24099999999999996          0.0000000000000000     
 -0.23799999999999996          0.0000000000000000     
 -0.23499999999999996          0.0000000000000000     
 -0.23199999999999996          0.0000000000000000     
 -0.22899999999999995          0.0000000000000000     
 -0.22599999999999995          0.0000000000000000     
 -0.22299999999999998          0.0000000000000000     
 -0.21999999999999997          0.0000000000000000     
 -0.21699999999999997          0.0000000000000000     
 -0.21399999999999997          0.0000000000000000     
 -0.21099999999999997          0.0000000000000000     
 -0.20799999999999996          0.0000000000000000     
 -0.20499999999999996          0.0000000000000000     
 -0.20199999999999996          1.8173579982474990E-041
 -0.19899999999999995          1.7491330112962810E-041
 -0.19599999999999995          2.0331640637386820E-041
 -0.19299999999999995          7.9629668886238036E-041
 -0.18999999999999997         -3.1991165071996372E-040
 -0.18699999999999997         -3.6391919683271797E-040
 -0.18399999999999997          6.3349193050224971E-040
 -0.18099999999999997         -1.4197762671675436E-039
 -0.17799999999999996          3.7405097313113383E-040
 -0.17499999999999996         -1.0950680599821089E-038
 -0.17199999999999996          1.6750691638638010E-039
 -0.16899999999999996          2.4178820181358772E-038
 -0.16599999999999995         -4.9934126769902545E-039
 -0.16299999999999995         -5.1135664639824702E-038
 -0.15999999999999998         -4.0204459606667205E-038
 -0.15699999999999997          7.0706370942152644E-038
 -0.15399999999999997          1.8298236057390941E-037
 -0.15099999999999997          7.1005523021216255E-038
 -0.14799999999999996         -5.0599487149802790E-037
 -0.14499999999999996         -9.0301916687610896E-037
 -0.14199999999999996          6.6574099866577698E-037
 -0.13899999999999996          3.5645765587392381E-036
 -0.13599999999999995          1.5656237103980410E-036
 -0.13299999999999995         -8.6108904157603885E-036
 -0.12999999999999995         -1.3124232762684669E-035
 -0.12699999999999995          8.8303857869212186E-036
 -0.12399999999999994          4.4602616131265261E-035
 -0.12099999999999994          3.0383354201907996E-035
 -0.11799999999999994         -8.1277713237304305E-035
 -0.11499999999999994         -1.8884295222500517E-034
 -0.11199999999999993         -2.3785874565038791E-035
 -0.10899999999999999          4.9580344785996325E-034
 -0.10599999999999998          7.1982922511179501E-034
 -0.10299999999999998         -4.2050087410198897E-034
  -9.9999999999999978E-002    -2.5147872329326269E-033
  -9.6999999999999975E-002    -2.2094226737808020E-033
  -9.3999999999999972E-002     3.7324904071757581E-033
  -9.0999999999999970E-002     1.0954315124107148E-032
  -8.7999999999999967E-002     5.3280811754282896E-033
  -8.4999999999999964E-002    -2.1427095319760603E-032
  -8.1999999999999962E-002    -4.4506225030928893E-032
  -7.8999999999999959E-002    -7.3842471287613693E-033
  -7.5999999999999956E-002     1.0612202686924785E-031
  -7.2999999999999954E-002     1.7337658638578155E-031
  -6.9999999999999951E-002    -2.2310631729601909E-032
  -6.6999999999999948E-002    -4.8069876059511905E-031
  -6.3999999999999946E-002    -6.5534464193800556E-031
  -6.0999999999999943E-002     2.5044705991871043E-031
  -5.7999999999999940E-002     2.0467251978455525E-030
  -5.4999999999999938E-002     2.4689059394242387E-030
  -5.1999999999999935E-002    -1.4042294992957496E-030
  -4.8999999999999932E-002    -8.3744313692952628E-030
  -4.5999999999999985E-002    -9.4243036851694161E-030
  -4.2999999999999983E-002     6.2499000009679254E-030
  -3.9999999999999980E-002     3.3185089410622426E-029
  -3.6999999999999977E-002     3.6720488160250537E-029
  -3.3999999999999975E-002    -2.3642209166221901E-029
  -3.0999999999999972E-002    -1.2759638014985359E-028
  -2.7999999999999969E-002    -1.4623883888029930E-028
  -2.4999999999999967E-002     7.5113671542685367E-029
  -2.1999999999999964E-002     4.7506520977906675E-028
  -1.8999999999999961E-002     5.8978339359551079E-028
  -1.5999999999999959E-002    -1.7776201876047108E-028
  -1.2999999999999956E-002    -1.6987799275488776E-027
  -9.9999999999999534E-003    -2.3717450065819176E-027
  -6.9999999999999507E-003     9.9870840059211829E-029
  -3.9999999999999480E-003     5.7501922912805744E-027
  -9.9999999999994538E-004     9.3467291367290386E-027
   2.0000000000000573E-003     2.2205342401711757E-027
   5.0000000000000600E-003    -1.7978683167007265E-026
   8.0000000000000626E-003    -3.5451079145746627E-026
   1.1000000000000065E-002    -1.8637716701979451E-026
   1.4000000000000068E-002     4.9533125828113859E-026
   1.7000000000000015E-002     1.2696252563031081E-025
   2.0000000000000018E-002     1.0489954444021950E-025
   2.3000000000000020E-002    -1.0657032491746892E-025
   2.6000000000000023E-002    -4.1946070002727439E-025
   2.9000000000000026E-002    -4.8696346757644793E-025
   3.2000000000000028E-002     8.8980660714964710E-026
   3.5000000000000031E-002     1.2338136229571892E-024
   3.8000000000000034E-002     1.9582728610336142E-024
   4.1000000000000036E-002     7.2304241472573800E-025
   4.4000000000000039E-002    -3.0051934537515772E-024
   4.7000000000000042E-002    -6.8668153294187676E-024
   5.0000000000000044E-002    -5.6405233834024706E-024
   5.3000000000000047E-002     4.7712018499940258E-024
   5.6000000000000050E-002     2.0551828282104627E-023
   5.9000000000000052E-002     2.6476997564433858E-023
   6.2000000000000055E-002     3.7962098231784111E-024
   6.5000000000000058E-002    -4.8984766744242410E-023
   6.8000000000000060E-002    -9.5982382647364748E-023
   7.1000000000000063E-002    -7.0799304312349743E-023
   7.4000000000000066E-002     7.1162244397873406E-023
   7.7000000000000068E-002     2.7488878345223513E-022
   8.0000000000000016E-002     3.5302470221718970E-022
   8.3000000000000018E-002     8.1629452703690468E-023
   8.6000000000000021E-002    -5.6724552674339992E-022
   8.9000000000000024E-002    -1.2017756734002673E-021
   9.2000000000000026E-002    -1.0646870611719290E-021
   9.5000000000000029E-002     4.4074187631772133E-022
   9.8000000000000032E-002     2.9218892058413506E-021
  0.10100000000000003          4.5223715213748224E-021
  0.10400000000000004          2.6390468942774657E-021
  0.10700000000000004         -3.9134286094809249E-021
  0.11000000000000004         -1.2372736228965443E-020
  0.11300000000000004         -1.5500929440693529E-020
  0.11600000000000005         -5.2713688674674136E-021
  0.11900000000000005          1.9567638653492255E-020
  0.12200000000000005          4.6577107730768328E-020
  0.12500000000000006          5.0744304928758246E-020
  0.12800000000000006          8.7668784409209693E-021
  0.13100000000000006         -7.7214355169411883E-020
  0.13400000000000006         -1.6181644671086689E-019
  0.13700000000000007         -1.6541682944786323E-019
  0.14000000000000007         -2.0930309828929135E-020
  0.14300000000000007          2.5706584628844320E-019
  0.14600000000000007          5.2628639022931680E-019
  0.14900000000000008          5.4886111545571426E-019
  0.15200000000000008          1.2547838938584310E-019
  0.15500000000000008         -7.1455119483627611E-019
  0.15800000000000008         -1.5865512878199093E-018
  0.16100000000000009         -1.8254302599073686E-018
  0.16400000000000009         -8.2198623911558064E-019
  0.16700000000000009          1.4857710465394894E-018
  0.17000000000000010          4.2436288276772919E-018
  0.17300000000000010          5.7642674819438458E-018
  0.17600000000000010          4.2346446838230333E-018
  0.17899999999999999         -1.1276495552407057E-018
  0.18200000000000000         -9.0223098797598747E-018
  0.18500000000000000         -1.5840902929361632E-017
  0.18800000000000000         -1.6765921622079290E-017
  0.19100000000000000         -8.0798015276633097E-018
  0.19400000000000001          1.0183120206807897E-017
  0.19700000000000001          3.2603198388773559E-017
  0.20000000000000001          4.9010439720342179E-017
  0.20300000000000001          4.7831219837687648E-017
  0.20600000000000002          2.1352054639432225E-017
  0.20900000000000002         -2.9039750954047930E-017
  0.21200000000000002         -9.0074639852099629E-017
  0.21500000000000002         -1.3823412773229484E-016
  0.21800000000000003         -1.4635089106111861E-016
  0.22100000000000003         -9.3823975909727721E-017
  0.22400000000000003          2.2652335319737658E-017
  0.22700000000000004          1.8188839266275613E-016
  0.23000000000000004          3.3821812571421282E-016
  0.23300000000000004          4.3065598141805337E-016
  0.23600000000000004          4.0025155700757277E-016
  0.23900000000000005          2.1153686130296832E-016
  0.24200000000000005         -1.2838183293927512E-016
  0.24500000000000005         -5.6003084330468447E-016
  0.24800000000000005         -9.7613039073655004E-016
  0.25100000000000006         -1.2416810077074877E-015
  0.25400000000000006         -1.2261209034736551E-015
  0.25700000000000006         -8.4035879584509005E-016
  0.26000000000000006         -6.9872928661197094E-017
  0.26300000000000007          1.0041456717370918E-015
  0.26600000000000007          2.2012122655472424E-015
  0.26900000000000007          3.2582180183498599E-015
  0.27200000000000008          3.8664596295161665E-015
  0.27500000000000008          3.7266924033054244E-015
  0.27800000000000008          2.6169513347502326E-015
  0.28100000000000008          4.6397759919839084E-016
  0.28400000000000009         -2.5952105463324331E-015
  0.28700000000000009         -6.1780151559150103E-015
  0.29000000000000009         -9.6631513629770133E-015
  0.29300000000000009         -1.2250571317947549E-014
  0.29600000000000010         -1.3075957011187739E-014
  0.29900000000000010         -1.1369799342344668E-014
  0.30200000000000010         -6.6401213508249237E-015
  0.30499999999999999          1.1507099887551319E-015
  0.30800000000000000          1.1449086467297083E-014
  0.31100000000000000          2.3047461572031555E-014
  0.31400000000000000          3.4124943645534885E-014
  0.31700000000000000          4.2409561369121122E-014
  0.32000000000000001          4.5463691754396027E-014
  0.32300000000000001          4.1072497802766561E-014
  0.32600000000000001          2.7692567252731342E-014
  0.32900000000000001          4.8978996471387836E-015
  0.33200000000000002         -2.6251721084012798E-014
  0.33500000000000002         -6.2996462531965060E-014
  0.33800000000000002         -1.0088294167302432E-013
  0.34100000000000003         -1.3403698688045654E-013
  0.34400000000000003         -1.5571780088901490E-013
  0.34700000000000003         -1.5913129497307319E-013
  0.35000000000000003         -1.3843886497511454E-013
  0.35300000000000004         -8.9858246541853670E-014
  0.35600000000000004         -1.2720250240784671E-014
  0.35900000000000004          8.9673863341367657E-014
  0.36200000000000004          2.0955038592713457E-013
  0.36500000000000005          3.3465480293980064E-013
  0.36800000000000005          4.4883680954537892E-013
  0.37100000000000005          5.3327432628890601E-013
  0.37400000000000005          5.6831156167727288E-013
  0.37700000000000006          5.3580926600362738E-013
  0.38000000000000006          4.2182052399154856E-013
  0.38300000000000006          2.1933082839157391E-013
  0.38600000000000007         -6.9255229975682599E-014
  0.38900000000000007         -4.3023212798398599E-013
  0.39200000000000007         -8.3765196102610954E-013
  0.39500000000000007         -1.2536188988633977E-012
  0.39800000000000008         -1.6300166361267988E-012
  0.40100000000000008         -1.9117476152010049E-012
  0.40400000000000008         -2.0414054079329315E-012
  0.40700000000000008         -1.9651305703873708E-012
  0.41000000000000009         -1.6392305333471841E-012
  0.41300000000000009         -1.0369893565419698E-012
  0.41600000000000009         -1.5498046088607670E-013
  0.41900000000000009          9.8186798564665477E-013
  0.42200000000000010          2.3171935279698916E-012
  0.42500000000000010          3.7627673529359304E-012
  0.42800000000000010          5.2012207330389935E-012
  0.43100000000000011          6.4922141188432424E-012
  0.43400000000000000          7.4820526588852691E-012
  0.43700000000000000          8.0164227901810768E-012
  0.44000000000000000          7.9555975352950866E-012
  0.44300000000000000          7.1911113566705573E-012
  0.44600000000000001          5.6626582815880075E-012
  0.44900000000000001          3.3737379614903761E-012
  0.45200000000000001          4.0448025838896411E-013
  0.45500000000000002         -3.0799022258069938E-012
  0.45800000000000002         -6.8264767948723397E-012
  0.46100000000000002         -1.0498953833771004E-011
  0.46400000000000002         -1.3689802111304491E-011
  0.46700000000000003         -1.5940452509034006E-011
  0.47000000000000003         -1.6769323932290047E-011
  0.47300000000000003         -1.5706742653376889E-011
  0.47600000000000003         -1.2335415637599829E-011
  0.47900000000000004         -6.3344004415444350E-012
  0.48200000000000004          2.4757062832337579E-012
  0.48500000000000004          1.4089013765312768E-011
  0.48800000000000004          2.8274683127917606E-011
  0.49100000000000005          4.4543889089187542E-011
  0.49400000000000005          6.2125576552727464E-011
  0.49700000000000005          7.9952583141967681E-011
  0.50000000000000000          9.6658970494808294E-011
  0.50300000000000011          1.1058835708509029E-010
  0.50600000000000001          1.1981238815309989E-010
  0.50900000000000012          1.2215697384798188E-010
  0.51200000000000001          1.1523309118581675E-010
  0.51500000000000012          9.6468539285099425E-011
  0.51800000000000002          6.3135195206325922E-011
  0.52100000000000013          1.2367016093590906E-011
  0.52400000000000002         -5.8837541421143599E-011
  0.52700000000000014         -1.5363355584622984E-010
  0.53000000000000003         -2.7537421725190824E-010
  0.53300000000000014         -4.2768592929702160E-010
  0.53600000000000003         -6.1457960735403232E-010
  0.53900000000000015         -8.4059859432846936E-010
  0.54200000000000004         -1.1110089634351779E-009
  0.54500000000000015         -1.4320296201586570E-009
  0.54800000000000004         -1.8111046507059715E-009
  0.55100000000000016         -2.2572171938029417E-009
  0.55400000000000005         -2.7812411186848211E-009
  0.55700000000000016         -3.3963295130026756E-009
  0.56000000000000005         -4.1183404538400729E-009
  0.56299999999999994         -4.9662923389315410E-009
  0.56600000000000006         -5.9628597299040972E-009
  0.56899999999999995         -7.1348870693990400E-009
  0.57200000000000006         -8.5139548973676332E-009
  0.57499999999999996         -1.0136964583108115E-008
  0.57800000000000007         -1.2046770742225200E-008
  0.58099999999999996         -1.4292852408094290E-008
  0.58400000000000007         -1.6932054719845123E-008
  0.58699999999999997         -2.0029351818283841E-008
  0.59000000000000008         -2.3658723943989359E-008
  0.59299999999999997         -2.7904068977170108E-008
  0.59600000000000009         -3.2860211466174524E-008
  0.59899999999999998         -3.8634012152656127E-008
  0.60200000000000009         -4.5345578292277816E-008
  0.60500000000000020         -5.3129497986965174E-008
  0.60800000000000010         -6.2136335080214092E-008
  0.61100000000000021         -7.2534039955978671E-008
  0.61400000000000010         -8.4509573282353000E-008
  0.61700000000000021         -9.8270574174845597E-008
  0.62000000000000011         -1.1404706880279411E-007
  0.62300000000000022         -1.3209326445230127E-007
  0.62600000000000011         -1.5268937070971098E-007
  0.62900000000000000         -1.7614328630825194E-007
  0.63200000000000012         -2.0279257994747439E-007
  0.63500000000000001         -2.3300598083646536E-007
  0.63800000000000012         -2.6718494378116896E-007
  0.64100000000000001         -3.0576515906880298E-007
  0.64400000000000013         -3.4921759371632243E-007
  0.64700000000000002         -3.9804942827557141E-007
  0.65000000000000013         -4.5280479098397079E-007
  0.65300000000000002         -5.1406457211768326E-007
  0.65600000000000014         -5.8244670500825576E-007
  0.65900000000000003         -6.5860480237223772E-007
  0.66200000000000014         -7.4322732079284945E-007
  0.66500000000000004         -8.3703469706556900E-007
  0.66800000000000015         -9.4077747288309556E-007
  0.67100000000000004         -1.0552321050946051E-006
  0.67400000000000015         -1.1811969941344547E-006
  0.67700000000000005         -1.3194862046880986E-006
  0.68000000000000016         -1.4709239559733024E-006
  0.68300000000000005         -1.6363373052108468E-006
  0.68600000000000017         -1.8165456452717389E-006
  0.68900000000000006         -2.0123519200310032E-006
  0.69200000000000017         -2.2245338629881129E-006
  0.69500000000000006         -2.4538270488636424E-006
  0.69800000000000018         -2.7009153855403961E-006
  0.70100000000000007         -2.9664129923786731E-006
  0.70400000000000018         -3.2508519844902355E-006
  0.70700000000000007         -3.5546598097597973E-006
  0.71000000000000019         -3.8781477573637842E-006
  0.71300000000000008         -4.2214849791161722E-006
  0.71600000000000019         -4.5846864586015528E-006
  0.71900000000000008         -4.9675819492250848E-006
  0.72200000000000020         -5.3698015028700108E-006
  0.72500000000000009         -5.7907587872970276E-006
  0.72800000000000020         -6.2296187828393277E-006
  0.73100000000000009         -6.6852856724660560E-006
  0.73400000000000021         -7.1563817066042328E-006
  0.73700000000000010         -7.6412238129825449E-006
  0.74000000000000021         -8.1378157225855584E-006
  0.74300000000000010         -8.6438179585243111E-006
  0.74600000000000022         -9.1565618007702486E-006
  0.74900000000000011         -9.6730064564465059E-006
  0.75200000000000022         -1.0189759023672185E-005
  0.75500000000000012         -1.0703067815586448E-005
  0.75800000000000001         -1.1208814793948840E-005
  0.76100000000000012         -1.1702523160729524E-005
  0.76400000000000001         -1.2179392446200450E-005
  0.76700000000000013         -1.2634281507924699E-005
  0.77000000000000002         -1.3061757525584181E-005
  0.77300000000000013         -1.3456119758568586E-005
  0.77600000000000002         -1.3811425338820285E-005
  0.77900000000000014         -1.4121555611990751E-005
  0.78200000000000003         -1.4380235593417477E-005
  0.78500000000000014         -1.4581119994351940E-005
  0.78800000000000003         -1.4717805394222693E-005
  0.79100000000000015         -1.4783950980687075E-005
  0.79400000000000004         -1.4773323803832437E-005
  0.79700000000000015         -1.4679882234841786E-005
  0.80000000000000004         -1.4497836089489760E-005
  0.80300000000000016         -1.4221783539553120E-005
  0.80600000000000005         -1.3846723720798453E-005
  0.80900000000000016         -1.3368185811037998E-005
  0.81200000000000006         -1.2782316556317042E-005
  0.81500000000000017         -1.2085958479381011E-005
  0.81800000000000006         -1.1276740017638317E-005
  0.82100000000000017         -1.0353138106528908E-005
  0.82400000000000007         -9.3145899290493980E-006
  0.82700000000000018         -8.1615079745701244E-006
  0.83000000000000007         -6.8953554638198567E-006
  0.83300000000000018         -5.5187565858806770E-006
  0.83600000000000008         -4.0354387601016790E-006
  0.83900000000000019         -2.4503332762544725E-006
  0.84200000000000008         -7.6956917090989082E-007
  0.84500000000000020          9.9954506044010636E-007
  0.84800000000000009          2.8484937109583248E-006
  0.85100000000000020          4.7676253273922863E-006
  0.85400000000000009          6.7461836123794320E-006
  0.85700000000000021          8.7723829987522419E-006
  0.86000000000000010          1.0833395499040216E-005
  0.86300000000000021          1.2915578029497055E-005
  0.86600000000000010          1.5004503827727726E-005
  0.86900000000000022          1.7085103097923394E-005
  0.87200000000000011          1.9141756316835313E-005
  0.87500000000000022          2.1158533095056807E-005
  0.87800000000000011          2.3119248263518203E-005
  0.88100000000000001          2.5007698942558103E-005
  0.88400000000000012          2.6807756840592574E-005
  0.88700000000000001          2.8503662585005194E-005
  0.89000000000000012          3.0080085035129803E-005
  0.89300000000000002          3.1522364348350773E-005
  0.89600000000000013          3.2816716103102704E-005
  0.89900000000000002          3.3950271484423665E-005
  0.90200000000000014          3.4911387739848257E-005
  0.90500000000000003          3.5689703130290967E-005
  0.90800000000000014          3.6276323130670926E-005
  0.91100000000000003          3.6663908573829763E-005
  0.91400000000000015          3.6846793464188748E-005
  0.91700000000000004          3.6821084872142672E-005
  0.92000000000000015          3.6584711652743443E-005
  0.92300000000000004          3.6137461811395572E-005
  0.92600000000000016          3.5481043783730948E-005
  0.92900000000000005          3.4619052100723396E-005
  0.93200000000000016          3.3556965249960732E-005
  0.93500000000000005          3.2302065888745994E-005
  0.93800000000000017          3.0863408822732082E-005
  0.94100000000000006          2.9251702379072013E-005
  0.94400000000000017          2.7479209360104044E-005
  0.94700000000000006          2.5559600187443033E-005
  0.95000000000000018          2.3507842354974354E-005
  0.95300000000000007          2.1340004997362393E-005
  0.95600000000000018          1.9073060061807641E-005
  0.95900000000000007          1.6724789584850720E-005
  0.96200000000000019          1.4313478244558372E-005
  0.96500000000000008          1.1857774990608473E-005
  0.96800000000000019          9.3764806559234910E-006
  0.97100000000000009          6.8883341580436046E-006
  0.97400000000000020          4.4118717936893795E-006
  0.97700000000000009          1.9650796485433389E-006
  0.98000000000000020         -4.3456567285593190E-007
  0.98300000000000010         -2.7704230338480339E-006
  0.98600000000000021         -5.0268281283685765E-006
  0.98900000000000010         -7.1891987727530978E-006
  0.99200000000000021         -9.2441282944954038E-006
  0.99500000000000011         -1.1179630545218033E-005
  0.99800000000000022         -1.2985095568535158E-005
   1.0010000000000001         -1.4651447063127975E-005
   1.0040000000000002         -1.6171101946911374E-005
   1.0070000000000001         -1.7538042278416422E-005
   1.0100000000000000         -1.8747907903900144E-005
   1.0130000000000001         -1.9797833341293877E-005
   1.0160000000000000         -2.0686548541027029E-005
   1.0190000000000001         -2.1414224763106915E-005
   1.0220000000000000         -2.1982535565424251E-005
   1.0250000000000001         -2.2394473406552142E-005
   1.0280000000000000         -2.2654269298528783E-005
   1.0310000000000001         -2.2767355674267776E-005
   1.0340000000000000         -2.2740206098395704E-005
   1.0370000000000001         -2.2580227281096166E-005
   1.0400000000000000         -2.2295595068892317E-005
   1.0430000000000001         -2.1895216322168497E-005
   1.0460000000000000         -2.1388539930734860E-005
   1.0490000000000002         -2.0785410842607315E-005
   1.0520000000000000         -2.0095955581301265E-005
   1.0550000000000002         -1.9330526898036347E-005
   1.0580000000000001         -1.8499491313040538E-005
   1.0610000000000002         -1.7613134958797354E-005
   1.0640000000000001         -1.6681622485028013E-005
   1.0670000000000002         -1.5714843350637174E-005
   1.0700000000000001         -1.4722323752212240E-005
   1.0730000000000002         -1.3713198718807401E-005
   1.0760000000000001         -1.2696116637502471E-005
   1.0790000000000002         -1.1679169774781274E-005
   1.0820000000000001         -1.0669844801873436E-005
   1.0850000000000002         -9.6750174898547807E-006
   1.0880000000000001         -8.7009188776223996E-006
   1.0910000000000002         -7.7531040316114183E-006
   1.0940000000000001         -6.8364662829579646E-006
   1.0970000000000002         -5.9552431601467680E-006
