 -0.39999999999999997          0.0000000000000000     
 -0.39699999999999996          0.0000000000000000     
 -0.39399999999999996          0.0000000000000000     
 -0.39099999999999996          0.0000000000000000     
 -0.38799999999999996          0.0000000000000000     
 -0.38499999999999995          0.0000000000000000     
 -0.38199999999999995          0.0000000000000000     
 -0.37899999999999995          0.0000000000000000     
 -0.37599999999999995          0.0000000000000000     
 -0.37299999999999994          0.0000000000000000     
 -0.37000000000000000          0.0000000000000000     
 -0.36699999999999999          0.0000000000000000     
 -0.36399999999999999          0.0000000000000000     
 -0.36099999999999999          0.0000000000000000     
 -0.35799999999999998          0.0000000000000000     
 -0.35499999999999998          0.0000000000000000     
 -0.35199999999999998          0.0000000000000000     
 -0.34899999999999998          0.0000000000000000     
 -0.34599999999999997          0.0000000000000000     
 -0.34299999999999997          0.0000000000000000     
 -0.33999999999999997          0.0000000000000000     
 -0.33699999999999997          0.0000000000000000     
 -0.33399999999999996          0.0000000000000000     
 -0.33099999999999996          0.0000000000000000     
 -0.32799999999999996          0.0000000000000000     
 -0.32499999999999996          0.0000000000000000     
 -0.32199999999999995          0.0000000000000000     
 -0.31899999999999995          0.0000000000000000     
 -0.31599999999999995          0.0000000000000000     
 -0.31299999999999994          0.0000000000000000     
 -0.30999999999999994          0.0000000000000000     
 -0.30699999999999994          0.0000000000000000     
 -0.30399999999999994          0.0000000000000000     
 -0.30099999999999993          0.0000000000000000     
 -0.29799999999999993         -2.3504353294303775E-041
 -0.29499999999999998          3.0600279553835151E-041
 -0.29199999999999998         -3.6119097720241898E-041
 -0.28899999999999998         -9.3890529534246368E-040
 -0.28599999999999998          1.2558219521331698E-039
 -0.28299999999999997          4.6225662599280774E-039
 -0.27999999999999997         -2.8401416997354786E-038
 -0.27699999999999997         -2.2446529451949904E-038
 -0.27399999999999997          2.3828697985296356E-037
 -0.27099999999999996         -1.9432855914853602E-037
 -0.26799999999999996         -1.3373701177186681E-036
 -0.26499999999999996          2.8826309231959373E-036
 -0.26199999999999996          4.9748409305965124E-036
 -0.25899999999999995         -2.2032945507439770E-035
 -0.25599999999999995         -7.7124449025025118E-036
 -0.25300000000000000          1.2636295981101617E-034
 -0.24999999999999997         -5.5692996299698675E-035
 -0.24699999999999997         -5.9998776160650884E-034
 -0.24399999999999997          6.4004977353819715E-034
 -0.24099999999999996          2.4702963025075166E-033
 -0.23799999999999996         -4.1050893968439927E-033
 -0.23499999999999996         -9.0912455095169670E-033
 -0.23199999999999996          2.0768980170113380E-032
 -0.22899999999999995          3.0728135352710031E-032
 -0.22599999999999995         -9.0508248987875341E-032
 -0.22299999999999998         -9.8384545759648686E-032
 -0.21999999999999997          3.5251137875087998E-031
 -0.21699999999999997          3.0967304872220237E-031
 -0.21399999999999997         -1.2486699917635422E-030
 -0.21099999999999997         -9.9264167961568075E-031
 -0.20799999999999996          4.0475621750865949E-030
 -0.20499999999999996          3.2890123950639362E-030
 -0.20199999999999996         -1.1967300217216577E-029
 -0.19899999999999995         -1.1072940976288435E-029
 -0.19599999999999995          3.1814383760613752E-029
 -0.19299999999999995          3.6422773707660553E-029
 -0.18999999999999997         -7.3591696232619221E-029
 -0.18699999999999997         -1.1200993605650419E-028
 -0.18399999999999997          1.3695666005207752E-028
 -0.18099999999999997          3.0807099392375719E-028
 -0.17799999999999996         -1.5450153288122917E-028
 -0.17499999999999996         -7.1530215018764424E-028
 -0.17199999999999996         -1.5195602611151558E-028
 -0.16899999999999996          1.2390291097444392E-027
 -0.16599999999999995          1.4512669700789157E-027
 -0.16299999999999995         -8.4320041182842048E-028
 -0.15999999999999998         -4.4592848049984218E-027
 -0.15699999999999997         -4.0572304436189679E-027
 -0.15399999999999997          7.1910050327870705E-027
 -0.15099999999999997          2.0513571987930914E-026
 -0.14799999999999996          3.3068837286076680E-027
 -0.14499999999999996         -5.1112948425505158E-026
 -0.14199999999999996         -6.2491665423449395E-026
 -0.13899999999999996          5.8400678177048090E-026
 -0.13599999999999995          2.1217880420912556E-025
 -0.13299999999999995          1.0634604366285086E-025
 -0.12999999999999995         -3.6455270140720098E-025
 -0.12699999999999995         -7.0407766718305492E-025
 -0.12399999999999994         -4.6314155145197608E-026
 -0.12099999999999994          1.6335419572577462E-024
 -0.11799999999999994          2.2895513928429164E-024
 -0.11499999999999994         -9.2010064460848392E-025
 -0.11199999999999993         -6.7666712991976203E-024
 -0.10899999999999999         -6.8257623118463827E-024
 -0.10599999999999998          6.8760626332362781E-024
 -0.10299999999999998          2.5331333393913679E-023
  -9.9999999999999978E-002     1.8725738796184977E-023
  -9.6999999999999975E-002    -3.2757012792563764E-023
  -9.3999999999999972E-002    -8.9561391568132442E-023
  -9.0999999999999970E-002    -5.1811997711805737E-023
  -8.7999999999999967E-002     1.3256443816705245E-022
  -8.4999999999999964E-002     3.1150854923188760E-022
  -8.1999999999999962E-002     1.4951905553693877E-022
  -7.8999999999999959E-002    -4.9273427807335362E-022
  -7.5999999999999956E-002    -1.0670240787836366E-021
  -7.2999999999999954E-002    -4.7120933486278162E-022
  -6.9999999999999951E-002     1.6965770709113441E-021
  -6.6999999999999948E-002     3.6147988518403060E-021
  -6.3999999999999946E-002     1.7011448010425476E-021
  -6.0999999999999943E-002    -5.4414223514626452E-021
  -5.7999999999999940E-002    -1.2139569218150406E-020
  -5.4999999999999938E-002    -6.7728623182065496E-021
  -5.1999999999999935E-002     1.6131556636608420E-020
  -4.8999999999999932E-002     4.0039149119529813E-020
  -4.5999999999999985E-002     2.7853135913806528E-020
  -4.2999999999999983E-002    -4.2706371962534288E-020
  -3.9999999999999980E-002    -1.2794951992522014E-019
  -3.6999999999999977E-002    -1.1272608508229945E-019
  -3.3999999999999975E-002     9.2489847606632765E-020
  -3.0999999999999972E-002     3.8907856608989406E-019
  -2.7999999999999969E-002     4.3478564635805510E-019
  -2.4999999999999967E-002    -1.1219210204550092E-019
  -2.1999999999999964E-002    -1.0956549233327629E-018
  -1.8999999999999961E-002    -1.5656711349771666E-018
  -1.5999999999999959E-002    -3.0647640610683896E-019
  -1.2999999999999956E-002     2.7299096357867805E-018
  -9.9999999999999534E-003     5.1724425649485881E-018
  -6.9999999999999507E-003     3.0495370442697318E-018
  -3.9999999999999480E-003    -5.4263185800009663E-018
  -9.9999999999994538E-004    -1.5318445338307133E-017
   2.0000000000000573E-003    -1.4938621421635482E-017
   5.0000000000000600E-003     5.4094158659801795E-018
   8.0000000000000626E-003     3.9040973075037851E-017
   1.1000000000000065E-002     5.5954835518940826E-017
   1.4000000000000068E-002     1.8777145416345458E-017
   1.7000000000000015E-002    -7.7703685374507290E-017
   2.0000000000000018E-002    -1.7087116734246693E-016
   2.3000000000000020E-002    -1.4483970864432124E-016
   2.6000000000000023E-002     7.8860445970859098E-017
   2.9000000000000026E-002     4.1621768887393425E-016
   3.2000000000000028E-002     5.7721179571206415E-016
   3.5000000000000031E-002     2.2090190203121598E-016
   3.8000000000000034E-002    -7.0344902568098388E-016
   4.1000000000000036E-002    -1.6580695156253311E-015
   4.4000000000000039E-002    -1.6212315602136494E-015
   4.7000000000000042E-002     2.0354853017447739E-016
   5.0000000000000044E-002     3.3614833319151245E-015
   5.3000000000000047E-002     5.6361054533235097E-015
   5.6000000000000050E-002     3.9634558032487011E-015
   5.9000000000000052E-002    -3.1115359973599161E-015
   6.2000000000000055E-002    -1.2773293107729590E-014
   6.5000000000000058E-002    -1.7531389756866652E-014
   6.8000000000000060E-002    -9.0324534030228334E-015
   7.1000000000000063E-002     1.4644951168466364E-014
   7.4000000000000066E-002     4.2667956056477151E-014
   7.7000000000000068E-002     5.2515824724863846E-014
   8.0000000000000016E-002     2.2234320081259456E-014
   8.3000000000000018E-002    -4.9855130796204160E-014
   8.6000000000000021E-002    -1.3040741504179089E-013
   8.9000000000000024E-002    -1.5674879575596312E-013
   9.2000000000000026E-002    -7.0366850197857075E-014
   9.5000000000000029E-002     1.3296899799739666E-013
   9.8000000000000032E-002     3.6694347507897559E-013
  0.10100000000000003          4.6813171448847224E-013
  0.10400000000000004          2.7557995499951814E-013
  0.10700000000000004         -2.4806610761404683E-013
  0.11000000000000004         -9.2073272752801502E-013
  0.11300000000000004         -1.3509026856971356E-012
  0.11600000000000005         -1.0974816055992506E-012
  0.11900000000000005          5.8252756164292199E-014
  0.12200000000000005          1.8567241159786969E-012
  0.12500000000000006          3.4913351950833515E-012
  0.12800000000000006          3.8495860711005738E-012
  0.13100000000000006          2.0448441593977706E-012
  0.13400000000000006         -1.9606841808050999E-012
  0.13700000000000007         -6.9655390914591248E-012
  0.14000000000000007         -1.0674624291870003E-011
  0.14300000000000007         -1.0488780630729669E-011
  0.14600000000000007         -4.7351510648673552E-012
  0.14900000000000008          6.1534661314533798E-012
  0.15200000000000008          1.9110575017816402E-011
  0.15500000000000008          2.8991209486534451E-011
  0.15800000000000008          3.0225891693339127E-011
  0.16100000000000009          1.9085690902226976E-011
  0.16400000000000009         -4.2889691448936137E-012
  0.16700000000000009         -3.4969294155056546E-011
  0.17000000000000010         -6.3950237479325093E-011
  0.17300000000000010         -8.0419160355618825E-011
  0.17600000000000010         -7.4922549843410558E-011
  0.17899999999999999         -4.2451876944779029E-011
  0.18200000000000000          1.5472357339100944E-011
  0.18500000000000000          9.0269211647333381E-011
  0.18800000000000000          1.6738275741978884E-010
  0.19100000000000000          2.2864846900090266E-010
  0.19400000000000001          2.5538372511550621E-010
  0.19700000000000001          2.3157848047958406E-010
  0.20000000000000001          1.4656826210402940E-010
  0.20300000000000001         -3.3732452109167772E-012
  0.20600000000000002         -2.1493072882145084E-010
  0.20900000000000002         -4.7921368098324105E-010
  0.21200000000000002         -7.8441924174964374E-010
  0.21500000000000002         -1.1189142210367406E-009
  0.21800000000000003         -1.4738847763255496E-009
  0.22100000000000003         -1.8450177225207705E-009
  0.22400000000000003         -2.2333005385524753E-009
  0.22700000000000004         -2.6454677811416222E-009
  0.23000000000000004         -3.0946300077586817E-009
  0.23300000000000004         -3.6010962146921065E-009
  0.23600000000000004         -4.1927513944539468E-009
  0.23900000000000005         -4.9041605159326892E-009
  0.24200000000000005         -5.7740878030116314E-009
  0.24500000000000005         -6.8421862096846645E-009
  0.24800000000000005         -8.1463838770888115E-009
  0.25100000000000006         -9.7224668407450765E-009
  0.25400000000000006         -1.1606298964922239E-008
  0.25700000000000006         -1.3837647279965963E-008
  0.26000000000000006         -1.6463677364227143E-008
  0.26300000000000007         -1.9540700733113084E-008
  0.26600000000000007         -2.3134087927231130E-008
  0.26900000000000007         -2.7317515612440093E-008
  0.27200000000000008         -3.2173662423855200E-008
  0.27500000000000008         -3.7796835938110226E-008
  0.27800000000000008         -4.4297275412820388E-008
  0.28100000000000008         -5.1804707894992352E-008
  0.28400000000000009         -6.0469973449594996E-008
  0.28700000000000009         -7.0464495946420786E-008
  0.29000000000000009         -8.1978380627581332E-008
  0.29300000000000009         -9.5219747557721522E-008
  0.29600000000000010         -1.1041575087336411E-007
  0.29900000000000010         -1.2781494895404098E-007
  0.30200000000000010         -1.4769031288400232E-007
  0.30499999999999999         -1.7034079653699698E-007
  0.30800000000000000         -1.9609229535039603E-007
  0.31100000000000000         -2.2529864931113570E-007
  0.31400000000000000         -2.5834362156849148E-007
  0.31700000000000000         -2.9564383336465282E-007
  0.32000000000000001         -3.3765228435437295E-007
  0.32300000000000001         -3.8485915430632128E-007
  0.32600000000000001         -4.3779220945077672E-007
  0.32900000000000001         -4.9701480110533159E-007
  0.33200000000000002         -5.6312387697195449E-007
  0.33500000000000002         -6.3674941882434526E-007
  0.33800000000000002         -7.1855571911586265E-007
  0.34100000000000003         -8.0923831962657166E-007
  0.34400000000000003         -9.0952475497964278E-007
  0.34700000000000003         -1.0201659628776758E-006
  0.35000000000000003         -1.1419355680650046E-006
  0.35300000000000004         -1.2756175913146529E-006
  0.35600000000000004         -1.4220039977475393E-006
  0.35900000000000004         -1.5818846785829706E-006
  0.36200000000000004         -1.7560409770247273E-006
  0.36500000000000005         -1.9452380178339418E-006
  0.36800000000000005         -2.1502084679419278E-006
  0.37100000000000005         -2.3716451772881565E-006
  0.37400000000000005         -2.6101845939641699E-006
  0.37700000000000006         -2.8663996064239144E-006
  0.38000000000000006         -3.1407788548738248E-006
  0.38300000000000006         -3.4337096185097535E-006
  0.38600000000000007         -3.7454649147496101E-006
  0.38900000000000007         -4.0761732486586422E-006
  0.39200000000000007         -4.4258112386116166E-006
  0.39500000000000007         -4.7941726852545136E-006
  0.39800000000000008         -5.1808672094110420E-006
  0.40100000000000008         -5.5852736853332921E-006
  0.40400000000000008         -6.0065363087489008E-006
  0.40700000000000008         -6.4435475787389039E-006
  0.41000000000000009         -6.8949204978619000E-006
  0.41300000000000009         -7.3589622951980188E-006
  0.41600000000000009         -7.8336926502433588E-006
  0.41900000000000009         -8.3167877331174437E-006
  0.42200000000000010         -8.8056171561896981E-006
  0.42500000000000010         -9.2971970244269274E-006
  0.42800000000000010         -9.7882000717354902E-006
  0.43100000000000011         -1.0274950711347680E-005
  0.43400000000000000         -1.0753430459375407E-005
  0.43700000000000000         -1.1219274061886070E-005
  0.44000000000000000         -1.1667824271155727E-005
  0.44300000000000000         -1.2094097915494887E-005
  0.44600000000000001         -1.2492847752476923E-005
  0.44900000000000001         -1.2858597840587958E-005
  0.45200000000000001         -1.3185629979954630E-005
  0.45500000000000002         -1.3468066697901566E-005
  0.45800000000000002         -1.3699924758142545E-005
  0.46100000000000002         -1.3875143229663615E-005
  0.46400000000000002         -1.3987670162302500E-005
  0.46700000000000003         -1.4031495085587027E-005
  0.47000000000000003         -1.4000721010251474E-005
  0.47300000000000003         -1.3889674978080205E-005
  0.47600000000000003         -1.3692955292611807E-005
  0.47900000000000004         -1.3405560777350931E-005
  0.48200000000000004         -1.3022858149166982E-005
  0.48500000000000004         -1.2540832578544367E-005
  0.48800000000000004         -1.1955977606576823E-005
  0.49100000000000005         -1.1265508120627273E-005
  0.49400000000000005         -1.0467411635435597E-005
  0.49700000000000005         -9.5605791574809928E-006
  0.50000000000000000         -8.5447106550568892E-006
  0.50300000000000011         -7.4205461592766484E-006
  0.50600000000000001         -6.1898074823363088E-006
  0.50900000000000012         -4.8553247575875840E-006
  0.51200000000000001         -3.4209820706486920E-006
  0.51500000000000012         -1.8917790623000639E-006
  0.51800000000000002         -2.7390639142537278E-007
  0.52100000000000013          1.4253434406132330E-006
  0.52400000000000002          3.1975500690938776E-006
  0.52700000000000014          5.0332454453326865E-006
  0.53000000000000003          6.9219317771124785E-006
  0.53300000000000014          8.8521362894182422E-006
  0.53600000000000003          1.0811487476655354E-005
  0.53900000000000015          1.2786796408079739E-005
  0.54200000000000004          1.4764238076963144E-005
  0.54500000000000015          1.6729385847308289E-005
  0.54800000000000004          1.8667410497809595E-005
  0.55100000000000016          2.0563101194741825E-005
  0.55400000000000005          2.2401195933962724E-005
  0.55700000000000016          2.4166382641238348E-005
  0.56000000000000005          2.5843500805635300E-005
  0.56299999999999994          2.7417801363264546E-005
  0.56600000000000006          2.8874985677643352E-005
  0.56899999999999995          3.0201460339943503E-005
  0.57200000000000006          3.1384437313798370E-005
  0.57499999999999996          3.2412130702610933E-005
  0.57800000000000007          3.3273861765902004E-005
  0.58099999999999996          3.3960259413102592E-005
  0.58400000000000007          3.4463361110788616E-005
  0.58699999999999997          3.4776726549345223E-005
  0.59000000000000008          3.4895470585386811E-005
  0.59299999999999997          3.4816415367577363E-005
  0.59600000000000009          3.4538119399050028E-005
  0.59899999999999998          3.4060888072157583E-005
  0.60200000000000009          3.3386785491223059E-005
  0.60500000000000020          3.2519722008954012E-005
  0.60800000000000010          3.1465276940628387E-005
  0.61100000000000021          3.0230789863814491E-005
  0.61400000000000010          2.8825188001234720E-005
  0.61700000000000021          2.7258951428741234E-005
  0.62000000000000011          2.5543935816895624E-005
  0.62300000000000022          2.3693322480020492E-005
  0.62600000000000011          2.1721505120505608E-005
  0.62900000000000000          1.9643798667103137E-005
  0.63200000000000012          1.7476443420586002E-005
  0.63500000000000001          1.5236230350202543E-005
  0.63800000000000012          1.2940479720077886E-005
  0.64100000000000001          1.0606751641474488E-005
  0.64400000000000013          8.2526983822934783E-006
  0.64700000000000002          5.8959811412583908E-006
  0.65000000000000013          3.5538761072109754E-006
  0.65300000000000002          1.2432955557278991E-006
  0.65600000000000014         -1.0195334405545647E-006
  0.65900000000000003         -3.2190661121416367E-006
  0.66200000000000014         -5.3407855084094127E-006
  0.66500000000000004         -7.3711965253366870E-006
  0.66800000000000015         -9.2979279265178838E-006
  0.67100000000000004         -1.1109903163434812E-005
  0.67400000000000015         -1.2797424662594529E-005
  0.67700000000000005         -1.4352074446712035E-005
  0.68000000000000016         -1.5766965985933399E-005
  0.68300000000000005         -1.7036686575150371E-005
  0.68600000000000017         -1.8157294960444957E-005
  0.68900000000000006         -1.9126349140562950E-005
  0.69200000000000017         -1.9942821507835892E-005
  0.69500000000000006         -2.0607093797442315E-005
  0.69800000000000018         -2.1120870949027025E-005
  0.70100000000000007         -2.1487041891062386E-005
  0.70400000000000018         -2.1709711246181852E-005
  0.70700000000000007         -2.1794099651729019E-005
  0.71000000000000019         -2.1746383623820087E-005
  0.71300000000000008         -2.1573618260415572E-005
  0.71600000000000019         -2.1283607199583344E-005
  0.71900000000000008         -2.0884781158585451E-005
  0.72200000000000020         -2.0386030710276117E-005
  0.72500000000000009         -1.9796649717480383E-005
  0.72800000000000020         -1.9126228912553480E-005
  0.73100000000000009         -1.8384518191020559E-005
  0.73400000000000021         -1.7581275148662379E-005
  0.73700000000000010         -1.6726234188964620E-005
  0.74000000000000021         -1.5828984434606398E-005
  0.74300000000000010         -1.4898835088257909E-005
  0.74600000000000022         -1.3944770766042178E-005
  0.74900000000000011         -1.2975400150470929E-005
  0.75200000000000022         -1.1998872774085428E-005
  0.75500000000000012         -1.1022819132895084E-005
  0.75800000000000001         -1.0054328292306291E-005
  0.76100000000000012         -9.0999206551247095E-006
  0.76400000000000001         -8.1654868482993666E-006
  0.76700000000000013         -7.2562845268484249E-006
  0.77000000000000002         -6.3769424873739790E-006
  0.77300000000000013         -5.5314544983555025E-006
  0.77600000000000002         -4.7232032974308420E-006
  0.77900000000000014         -3.9549863620552821E-006
  0.78200000000000003         -3.2290220794270817E-006
  0.78500000000000014         -2.5469695668153063E-006
  0.78800000000000003         -1.9099463853858296E-006
  0.79100000000000015         -1.3185672243621437E-006
  0.79400000000000004         -7.7297278668054504E-007
  0.79700000000000015         -2.7292219861870369E-007
  0.80000000000000004          1.8219870440407250E-007
  0.80300000000000016          5.9332380414888177E-007
  0.80600000000000005          9.6168299347611899E-007
  0.80900000000000016          1.2887695421437333E-006
  0.81200000000000006          1.5762873245318260E-006
  0.81500000000000017          1.8261464257865458E-006
  0.81800000000000006          2.0403631486573206E-006
  0.82100000000000017          2.2210314205546554E-006
  0.82400000000000007          2.3703416178371388E-006
  0.82700000000000018          2.4905381702215566E-006
  0.83000000000000007          2.5838682547943409E-006
  0.83300000000000018          2.6525736248195957E-006
  0.83600000000000008          2.6988759033596062E-006
  0.83900000000000019          2.7249305073951957E-006
  0.84200000000000008          2.7327965128079830E-006
  0.84500000000000020          2.7244711091221642E-006
  0.84800000000000009          2.7018937086836589E-006
  0.85100000000000020          2.6668829287022167E-006
  0.85400000000000009          2.6211311548297653E-006
  0.85700000000000021          2.5662500742201907E-006
  0.86000000000000010          2.5037374335620127E-006
  0.86300000000000021          2.4349436286556472E-006
  0.86600000000000010          2.3611261286791761E-006
  0.86900000000000022          2.2834615804642852E-006
  0.87200000000000011          2.2029889587129458E-006
  0.87500000000000022          2.1206039080420288E-006
  0.87800000000000011          2.0371224884869162E-006
  0.88100000000000001          1.9532842466018053E-006
  0.88400000000000012          1.8697152360912482E-006
  0.88700000000000001          1.7869683297699172E-006
  0.89000000000000012          1.7055523855012298E-006
  0.89300000000000002          1.6258789358832988E-006
  0.89600000000000013          1.5482374066783216E-006
  0.89900000000000002          1.4728748144390674E-006
  0.90200000000000014          1.4000108434890787E-006
  0.90500000000000003          1.3297982959608003E-006
  0.90800000000000014          1.2623465385971341E-006
  0.91100000000000003          1.1977637145864311E-006
  0.91400000000000015          1.1361123900417145E-006
  0.91700000000000004          1.0773752801808442E-006
  0.92000000000000015          1.0215124043792573E-006
  0.92300000000000004          9.6849642452210208E-007
  0.92600000000000016          9.1826491402550559E-007
  0.92900000000000005          8.7072752791197495E-007
  0.93200000000000016          8.2581605142642602E-007
  0.93500000000000005          7.8345928037331694E-007
  0.93800000000000017          7.4353549033545570E-007
  0.94100000000000006          7.0591329363380017E-007
  0.94400000000000017          6.7049004143416977E-007
  0.94700000000000006          6.3715095848410558E-007
  0.95000000000000018          6.0575949427104695E-007
  0.95300000000000007          5.7620583264662481E-007
  0.95600000000000018          5.4839918395122521E-007
  0.95900000000000007          5.2221931143300622E-007
  0.96200000000000019          4.9753722513208466E-007
  0.96500000000000008          4.7425528708339163E-007
  0.96800000000000019          4.5228155252736069E-007
  0.97100000000000009          4.3150399329935754E-007
  0.97400000000000020          4.1182450154952285E-007
  0.97700000000000009          3.9316986539667999E-007
  0.98000000000000020          3.7545447851141688E-007
  0.98300000000000010          3.5858439469178423E-007
  0.98600000000000021          3.4249695861067934E-007
  0.98900000000000010          3.2715045005645719E-007
  0.99200000000000021          3.1248817238732191E-007
  0.99500000000000011          2.9844870860604260E-007
  0.99800000000000022          2.8498639927521871E-007
   1.0010000000000001          2.7205537810615417E-007
   1.0040000000000002          2.5960146642698734E-007
   1.0070000000000001          2.4758969408063876E-007
   1.0100000000000000          2.3601179773569879E-007
   1.0130000000000001          2.2485466869433667E-007
   1.0160000000000000          2.1408877165276776E-007
   1.0190000000000001          2.0369196820990232E-007
   1.0220000000000000          1.9365624360703975E-007
   1.0250000000000001          1.8397071051075473E-007
   1.0280000000000000          1.7462416408914249E-007
   1.0310000000000001          1.6562152947070480E-007
   1.0340000000000000          1.5697179064907250E-007
   1.0370000000000001          1.4866369946731126E-007
   1.0400000000000000          1.4068312667874664E-007
   1.0430000000000001          1.3304061955189094E-007
   1.0460000000000000          1.2575378487834904E-007
   1.0490000000000002          1.1882122234685148E-007
   1.0520000000000000          1.1223889655478421E-007
   1.0550000000000002          1.0601389222478340E-007
   1.0580000000000001          1.0013935417548596E-007
   1.0610000000000002          9.4594898033620413E-008
   1.0640000000000001          8.9386811796880875E-008
   1.0670000000000002          8.4541985670713023E-008
   1.0700000000000001          8.0060310997865616E-008
   1.0730000000000002          7.5922768964928078E-008
   1.0760000000000001          7.2127785306958331E-008
   1.0790000000000002          6.8670654956175428E-008
   1.0820000000000001          6.5521777323093751E-008
   1.0850000000000002          6.2666463676137167E-008
   1.0880000000000001          6.0117623815013519E-008
   1.0910000000000002          5.7863384029232771E-008
   1.0940000000000001          5.5863946015789931E-008
   1.0970000000000002          5.4102673542177038E-008
