 -0.39999999999999997          0.0000000000000000     
 -0.39699999999999996          0.0000000000000000     
 -0.39399999999999996          0.0000000000000000     
 -0.39099999999999996          0.0000000000000000     
 -0.38799999999999996          0.0000000000000000     
 -0.38499999999999995          0.0000000000000000     
 -0.38199999999999995          0.0000000000000000     
 -0.37899999999999995          0.0000000000000000     
 -0.37599999999999995          0.0000000000000000     
 -0.37299999999999994          0.0000000000000000     
 -0.37000000000000000          0.0000000000000000     
 -0.36699999999999999          0.0000000000000000     
 -0.36399999999999999          0.0000000000000000     
 -0.36099999999999999          0.0000000000000000     
 -0.35799999999999998          0.0000000000000000     
 -0.35499999999999998          0.0000000000000000     
 -0.35199999999999998          0.0000000000000000     
 -0.34899999999999998          0.0000000000000000     
 -0.34599999999999997          0.0000000000000000     
 -0.34299999999999997          0.0000000000000000     
 -0.33999999999999997          0.0000000000000000     
 -0.33699999999999997          0.0000000000000000     
 -0.33399999999999996          0.0000000000000000     
 -0.33099999999999996          0.0000000000000000     
 -0.32799999999999996          0.0000000000000000     
 -0.32499999999999996          0.0000000000000000     
 -0.32199999999999995          0.0000000000000000     
 -0.31899999999999995          0.0000000000000000     
 -0.31599999999999995          0.0000000000000000     
 -0.31299999999999994          0.0000000000000000     
 -0.30999999999999994          0.0000000000000000     
 -0.30699999999999994          0.0000000000000000     
 -0.30399999999999994          0.0000000000000000     
 -0.30099999999999993          0.0000000000000000     
 -0.29799999999999993          0.0000000000000000     
 -0.29499999999999998          0.0000000000000000     
 -0.29199999999999998          0.0000000000000000     
 -0.28899999999999998          0.0000000000000000     
 -0.28599999999999998          0.0000000000000000     
 -0.28299999999999997          0.0000000000000000     
 -0.27999999999999997          0.0000000000000000     
 -0.27699999999999997          0.0000000000000000     
 -0.27399999999999997          0.0000000000000000     
 -0.27099999999999996          0.0000000000000000     
 -0.26799999999999996          0.0000000000000000     
 -0.26499999999999996          0.0000000000000000     
 -0.26199999999999996          0.0000000000000000     
 -0.25899999999999995          0.0000000000000000     
 -0.25599999999999995          0.0000000000000000     
 -0.25300000000000000          0.0000000000000000     
 -0.24999999999999997          0.0000000000000000     
 -0.24699999999999997          0.0000000000000000     
 -0.24399999999999997          0.0000000000000000     
 -0.24099999999999996          0.0000000000000000     
 -0.23799999999999996          0.0000000000000000     
 -0.23499999999999996          0.0000000000000000     
 -0.23199999999999996          0.0000000000000000     
 -0.22899999999999995          0.0000000000000000     
 -0.22599999999999995          0.0000000000000000     
 -0.22299999999999998          0.0000000000000000     
 -0.21999999999999997          0.0000000000000000     
 -0.21699999999999997          0.0000000000000000     
 -0.21399999999999997          0.0000000000000000     
 -0.21099999999999997          0.0000000000000000     
 -0.20799999999999996          0.0000000000000000     
 -0.20499999999999996          0.0000000000000000     
 -0.20199999999999996          0.0000000000000000     
 -0.19899999999999995          0.0000000000000000     
 -0.19599999999999995          0.0000000000000000     
 -0.19299999999999995          0.0000000000000000     
 -0.18999999999999997          0.0000000000000000     
 -0.18699999999999997          0.0000000000000000     
 -0.18399999999999997          0.0000000000000000     
 -0.18099999999999997          0.0000000000000000     
 -0.17799999999999996          0.0000000000000000     
 -0.17499999999999996          0.0000000000000000     
 -0.17199999999999996          0.0000000000000000     
 -0.16899999999999996          0.0000000000000000     
 -0.16599999999999995          0.0000000000000000     
 -0.16299999999999995          0.0000000000000000     
 -0.15999999999999998          0.0000000000000000     
 -0.15699999999999997          0.0000000000000000     
 -0.15399999999999997          0.0000000000000000     
 -0.15099999999999997          0.0000000000000000     
 -0.14799999999999996          0.0000000000000000     
 -0.14499999999999996          0.0000000000000000     
 -0.14199999999999996          0.0000000000000000     
 -0.13899999999999996          0.0000000000000000     
 -0.13599999999999995          0.0000000000000000     
 -0.13299999999999995          0.0000000000000000     
 -0.12999999999999995          0.0000000000000000     
 -0.12699999999999995          0.0000000000000000     
 -0.12399999999999994          0.0000000000000000     
 -0.12099999999999994          0.0000000000000000     
 -0.11799999999999994          0.0000000000000000     
 -0.11499999999999994          0.0000000000000000     
 -0.11199999999999993          0.0000000000000000     
 -0.10899999999999999          0.0000000000000000     
 -0.10599999999999998          0.0000000000000000     
 -0.10299999999999998          0.0000000000000000     
  -9.9999999999999978E-002     0.0000000000000000     
  -9.6999999999999975E-002     0.0000000000000000     
  -9.3999999999999972E-002     0.0000000000000000     
  -9.0999999999999970E-002     0.0000000000000000     
  -8.7999999999999967E-002     0.0000000000000000     
  -8.4999999999999964E-002     0.0000000000000000     
  -8.1999999999999962E-002     0.0000000000000000     
  -7.8999999999999959E-002     0.0000000000000000     
  -7.5999999999999956E-002     0.0000000000000000     
  -7.2999999999999954E-002     0.0000000000000000     
  -6.9999999999999951E-002    -5.1671963151474048E-041
  -6.6999999999999948E-002     4.9013872740521603E-041
  -6.3999999999999946E-002     2.6473981703349475E-040
  -6.0999999999999943E-002     4.9046536120830342E-040
  -5.7999999999999940E-002    -9.7608175565397449E-040
  -5.4999999999999938E-002    -5.6171907931136087E-039
  -5.1999999999999935E-002    -3.1003813637100075E-040
  -4.8999999999999932E-002     1.5503586219992372E-038
  -4.5999999999999985E-002     4.0740830870045719E-038
  -4.2999999999999983E-002    -1.0738746132450460E-038
  -3.9999999999999980E-002    -1.2990340146551595E-037
  -3.6999999999999977E-002    -1.7355153067399016E-037
  -3.3999999999999975E-002     7.9850249207375290E-038
  -3.0999999999999972E-002     5.9249592526552044E-037
  -2.7999999999999969E-002     7.2529997409101371E-037
  -2.4999999999999967E-002    -4.2298257632516014E-037
  -2.1999999999999964E-002    -2.6020680659263978E-036
  -1.8999999999999961E-002    -3.0759259598492183E-036
  -1.5999999999999959E-002     1.8579781045023576E-036
  -1.2999999999999956E-002     1.1071525633587024E-035
  -9.9999999999999534E-003     1.3268134891584464E-035
  -6.9999999999999507E-003    -6.8949348712582663E-036
  -3.9999999999999480E-003    -4.5611503561653680E-035
  -9.9999999999994538E-004    -5.7933427638693908E-035
   2.0000000000000573E-003     2.0078956643784072E-035
   5.0000000000000600E-003     1.8097912895706190E-034
   8.0000000000000626E-003     2.5321104679557009E-034
   1.1000000000000065E-002    -2.8988163754832418E-035
   1.4000000000000068E-002    -6.8435004838838016E-034
   1.7000000000000015E-002    -1.0914068661025539E-033
   2.0000000000000018E-002    -1.6238336512022138E-034
   2.3000000000000020E-002     2.4215573285501921E-033
   2.6000000000000023E-002     4.5651323053844786E-033
   2.9000000000000026E-002     1.9470856452026863E-033
   3.2000000000000028E-002    -7.7609612731882293E-033
   3.5000000000000031E-002    -1.8220459383121099E-032
   3.8000000000000034E-002    -1.3038187148310065E-032
   4.1000000000000036E-002     2.0987811328745294E-032
   4.4000000000000039E-002     6.8064943638663810E-032
   4.7000000000000042E-002     6.9952891770010885E-032
   5.0000000000000044E-002    -3.7672487835639442E-032
   5.3000000000000047E-002    -2.3181865882117368E-031
   5.6000000000000050E-002    -3.2392987926660779E-031
   5.9000000000000052E-002    -3.6403322732793328E-032
   6.2000000000000055E-002     6.8792970940189667E-031
   6.5000000000000058E-002     1.3189490646195089E-030
   6.8000000000000060E-002     7.9047631209594167E-031
   7.1000000000000063E-002    -1.5944655889101215E-030
   7.4000000000000066E-002    -4.6882246345233470E-030
   7.7000000000000068E-002    -4.8939381784137858E-030
   8.0000000000000016E-002     1.6721704540223998E-030
   8.3000000000000018E-002     1.4040708026166216E-029
   8.6000000000000021E-002     2.1957878185164734E-029
   8.9000000000000024E-002     9.0787687707249440E-030
   9.2000000000000026E-002    -3.1855042648995994E-029
   9.5000000000000029E-002    -7.8717464396306962E-029
   9.8000000000000032E-002    -7.5818002900915077E-029
  0.10100000000000003          3.0850536980170188E-029
  0.10400000000000004          2.2150870948582663E-028
  0.10700000000000004          3.4609803237137378E-028
  0.11000000000000004          1.7154497518520203E-028
  0.11300000000000004         -4.1652993099566312E-028
  0.11600000000000005         -1.1449369136547580E-027
  0.11900000000000005         -1.2747369020997679E-027
  0.12200000000000005         -2.2259420069207260E-030
  0.12500000000000006          2.6532166154220432E-027
  0.12800000000000006          5.0279763858591384E-027
  0.13100000000000006          4.0721908404901102E-027
  0.13400000000000006         -2.5600199196813819E-027
  0.13700000000000007         -1.3178254142500879E-026
  0.14000000000000007         -1.9991251827357023E-026
  0.14300000000000007         -1.1737736932425495E-026
  0.14600000000000007          1.7500860873580713E-026
  0.14900000000000008          5.7024643853229034E-026
  0.15200000000000008          7.5308450271829086E-026
  0.15500000000000008          3.3370618365599610E-026
  0.15800000000000008         -8.2565999128823533E-026
  0.16100000000000009         -2.2507459057917082E-025
  0.16400000000000009         -2.7845220743694489E-025
  0.16700000000000009         -1.1112519789075206E-025
  0.17000000000000010          3.1368358905655887E-025
  0.17300000000000010          8.2496794189502198E-025
  0.17600000000000010          1.0292480760260597E-024
  0.17899999999999999          4.8250050006445239E-025
  0.18200000000000000         -9.6108892510697606E-025
  0.18500000000000000         -2.7915438754359754E-024
  0.18800000000000000         -3.7700372522154797E-024
  0.19100000000000000         -2.4019454012974227E-024
  0.19400000000000001          2.0449835639672685E-024
  0.19700000000000001          8.4073762625867992E-024
  0.20000000000000001          1.3173260589221450E-023
  0.20300000000000001          1.1494519256312761E-023
  0.20600000000000002         -1.4226823522789184E-025
  0.20900000000000002         -2.0466475214079479E-023
  0.21200000000000002         -4.1139090469329378E-023
  0.21500000000000002         -4.7901551375586706E-023
  0.21800000000000003         -2.6417182669774967E-023
  0.22100000000000003          2.8293709564977888E-023
  0.22400000000000003          1.0280410161837022E-022
  0.22700000000000004          1.6247840837943093E-022
  0.23000000000000004          1.6007062191754562E-022
  0.23300000000000004          5.6783566624950190E-023
  0.23600000000000004         -1.4982269957401141E-022
  0.23900000000000005         -4.0338351432790552E-022
  0.24200000000000005         -5.8712583307253978E-022
  0.24500000000000005         -5.5468948883639798E-022
  0.24800000000000005         -1.9326637917770474E-022
  0.25100000000000006          4.9801684144586962E-022
  0.25400000000000006          1.3474164407411897E-021
  0.25700000000000006          2.0068942574903001E-021
  0.26000000000000006          2.0344520554199577E-021
  0.26300000000000007          1.0626618745549443E-021
  0.26600000000000007         -9.8747460357775154E-022
  0.26900000000000007         -3.7269688831506411E-021
  0.27200000000000008         -6.2509159685421979E-021
  0.27500000000000008         -7.3003314346872359E-021
  0.27800000000000008         -5.6510063514155917E-021
  0.28100000000000008         -6.5605112330672554E-022
  0.28400000000000009          7.2232969540124345E-021
  0.28700000000000009          1.6120155707485527E-020
  0.29000000000000009          2.2906048094194281E-020
  0.29300000000000009          2.3886236127751398E-020
  0.29600000000000010          1.5984526431686991E-020
  0.29900000000000010         -1.8464128515772354E-021
  0.30200000000000010         -2.7422820372407640E-020
  0.30499999999999999         -5.4836967976712089E-020
  0.30800000000000000         -7.5090860650953996E-020
  0.31100000000000000         -7.8022493057148465E-020
  0.31400000000000000         -5.5311271956868390E-020
  0.31700000000000000         -3.9285146223621347E-021
  0.32000000000000001          7.0938579465432507E-020
  0.32300000000000001          1.5458611362988165E-019
  0.32600000000000001          2.2403061191708167E-019
  0.32900000000000001          2.5218754715759082E-019
  0.33200000000000002          2.1462588496437120E-019
  0.33500000000000002          9.7672728768218533E-020
  0.33800000000000002         -9.4077824348422038E-020
  0.34100000000000003         -3.3314513188566862E-019
  0.34400000000000003         -5.6951215083664129E-019
  0.34700000000000003         -7.3720128921149511E-019
  0.35000000000000003         -7.6698099094590565E-019
  0.35300000000000004         -6.0348620110186657E-019
  0.35600000000000004         -2.2350951649064225E-019
  0.35900000000000004          3.4881670820178873E-019
  0.36200000000000004          1.0344115920432722E-018
  0.36500000000000005          1.7028283105381323E-018
  0.36800000000000005          2.1887866200905727E-018
  0.37100000000000005          2.3208140647871518E-018
  0.37400000000000005          1.9582806131342819E-018
  0.37700000000000006          1.0305771900232359E-018
  0.38000000000000006         -4.2945493147033180E-019
  0.38300000000000006         -2.2659912792656077E-018
  0.38600000000000007         -4.2013873843392708E-018
  0.38900000000000007         -5.8619844572021904E-018
  0.39200000000000007         -6.8284401060397101E-018
  0.39500000000000007         -6.7059127965780304E-018
  0.39800000000000008         -5.2050473274976515E-018
  0.40100000000000008         -2.2213311396078034E-018
  0.40400000000000008          2.1013386702303241E-018
  0.40700000000000008          7.3366800401442865E-018
  0.41000000000000009          1.2782945888566786E-017
  0.41300000000000009          1.7517443727079773E-017
  0.41600000000000009          2.0499288737720288E-017
  0.41900000000000009          2.0713939811971978E-017
  0.42200000000000010          1.7345881434461099E-017
  0.42500000000000010          9.9593825107674518E-018
  0.42800000000000010         -1.3377816999676449E-018
  0.43100000000000011         -1.5775309641615592E-017
  0.43400000000000000         -3.1873379235584424E-017
  0.43700000000000000         -4.7490940862460308E-017
  0.44000000000000000         -5.9984524052001483E-017
  0.44300000000000000         -6.6481121446157381E-017
  0.44600000000000001         -6.4253452670074273E-017
  0.44900000000000001         -5.1168517828507649E-017
  0.45200000000000001         -2.6162988941964686E-017
  0.45500000000000002          1.0316656217689103E-017
  0.45800000000000002          5.5981586193506821E-017
  0.46100000000000002          1.0655082476457217E-016
  0.46400000000000002          1.5585131605784196E-016
  0.46700000000000003          1.9621604958283177E-016
  0.47000000000000003          2.1919760594319758E-016
  0.47300000000000003          2.1657315548998523E-016
  0.47600000000000003          1.8157084239099839E-016
  0.47900000000000004          1.1019886450920297E-016
  0.48200000000000004          2.5171867547916158E-018
  0.48500000000000004         -1.3633665791064854E-016
  0.48800000000000004         -2.9556593507147936E-016
  0.49100000000000005         -4.5875797854343830E-016
  0.49400000000000005         -6.0468955317691311E-016
  0.49700000000000005         -7.0895941571933070E-016
  0.50000000000000000         -7.4642141613543447E-016
  0.50300000000000011         -6.9428037203991102E-016
  0.50600000000000001         -5.3560334831577926E-016
  0.50900000000000012         -2.6289737101688078E-016
  0.51200000000000001          1.1867886865015101E-016
  0.51500000000000012          5.8893653180970972E-016
  0.51800000000000002          1.1115793579916021E-015
  0.52100000000000013          1.6348326695091653E-015
  0.52400000000000002          2.0940643812215668E-015
  0.52700000000000014          2.4165136020009863E-015
  0.53000000000000003          2.5280258126121651E-015
  0.53300000000000014          2.3614441752931502E-015
  0.53600000000000003          1.8660556528125362E-015
  0.53900000000000015          1.0172536737292903E-015
  0.54200000000000004         -1.7461330299959014E-016
  0.54500000000000015         -1.6573518504977401E-015
  0.54800000000000004         -3.3331634566140616E-015
  0.55100000000000016         -5.0590804335530470E-015
  0.55400000000000005         -6.6524288796072823E-015
  0.55700000000000016         -7.9018026625339950E-015
  0.56000000000000005         -8.5835158371945845E-015
  0.56299999999999994         -8.4829548731208176E-015
  0.56600000000000006         -7.4196263040798144E-015
  0.56899999999999995         -5.2740109753599420E-015
  0.57200000000000006         -2.0138602394405409E-015
  0.57499999999999996          2.2829191813988482E-015
  0.57800000000000007          7.4117978540927412E-015
  0.58099999999999996          1.3034601030699189E-014
  0.58400000000000007          1.8684515543948132E-014
  0.58699999999999997          2.3785095625477826E-014
  0.59000000000000008          2.7684195792989173E-014
  0.59299999999999997          2.9702444479373958E-014
  0.59600000000000009          2.9194533645560647E-014
  0.59899999999999998          2.5619779863798947E-014
  0.60200000000000009          1.8617149063632032E-014
  0.60500000000000020          8.0784395048128850E-015
  0.60800000000000010         -5.7876076383782186E-015
  0.61100000000000021         -2.2408052994531136E-014
  0.61400000000000010         -4.0822923743656349E-014
  0.61700000000000021         -5.9693548560222258E-014
  0.62000000000000011         -7.7347287597320185E-014
  0.62300000000000022         -9.1861576790057695E-014
  0.62600000000000011         -1.0118691300254844E-013
  0.62900000000000000         -1.0330559690160387E-013
  0.63200000000000012         -9.6418656263062036E-014
  0.63500000000000001         -7.9150107485575526E-014
  0.63800000000000012         -5.0753899877393840E-014
  0.64100000000000001         -1.1306582789308071E-014
  0.64400000000000013          3.8133595733730572E-014
  0.64700000000000002          9.5420493717549626E-014
  0.65000000000000013          1.5728536928146214E-013
  0.65300000000000002          2.1938971849237234E-013
  0.65600000000000014          2.7647659214919478E-013
  0.65900000000000003          3.2262647648337853E-013
  0.66200000000000014          3.5161458838143327E-013
  0.66500000000000004          3.5736008162080678E-013
  0.66800000000000015          3.3444645358584297E-013
  0.67100000000000004          2.7868534921755781E-013
  0.67400000000000015          1.8768658822632065E-013
  0.67700000000000005          6.1391019216207353E-014
  0.68000000000000016         -9.7480800477982295E-014
  0.68300000000000005         -2.8311325788215726E-013
  0.68600000000000017         -4.8645949115806544E-013
  0.68900000000000006         -6.9532581327875423E-013
  0.69200000000000017         -8.9470575082538378E-013
  0.69500000000000006         -1.0673814948275977E-012
  0.69800000000000018         -1.1947919682929004E-012
  0.70100000000000007         -1.2581463003980356E-012
  0.70400000000000018         -1.2397451578215938E-012
  0.70700000000000007         -1.1244443722753055E-012
  0.71000000000000019         -9.0118300920383988E-013
  0.71300000000000008         -5.6447261507247032E-013
  0.71600000000000019         -1.1574440114755572E-013
  0.71900000000000008          4.3557117610531848E-013
  0.72200000000000020          1.0713432343027668E-012
  0.72500000000000009          1.7645275806526782E-012
  0.72800000000000020          2.4795356205277184E-012
  0.73100000000000009          3.1732504278894649E-012
  0.73400000000000021          3.7967232166307330E-012
  0.73700000000000010          4.2975485367459065E-012
  0.74000000000000021          4.6228637872959692E-012
  0.74300000000000010          4.7228864456952833E-012
  0.74600000000000022          4.5548367243750967E-012
  0.74900000000000011          4.0870675001828603E-012
  0.75200000000000022          3.3031767770336322E-012
  0.75500000000000012          2.2058588315607093E-012
  0.75800000000000001          8.2020927561886336E-013
  0.76100000000000012         -8.0376215143313830E-013
  0.76400000000000001         -2.5896931761535577E-012
  0.76700000000000013         -4.4347208973175850E-012
  0.77000000000000002         -6.2108149839251293E-012
  0.77300000000000013         -7.7677233778355261E-012
  0.77600000000000002         -8.9375732109315732E-012
  0.77900000000000014         -9.5411161242994594E-012
  0.78200000000000003         -9.3955112153340736E-012
  0.78500000000000014         -8.3234286326499354E-012
  0.78800000000000003         -6.1632309194768249E-012
  0.79100000000000015         -2.7798583293179746E-012
  0.79400000000000004          1.9239628250561100E-012
  0.79700000000000015          7.9966481843014582E-012
  0.80000000000000004          1.5427237085381841E-011
  0.80300000000000016          2.4135838199409127E-011
  0.80600000000000005          3.3965437268259826E-011
  0.80900000000000016          4.4675336270835318E-011
  0.81200000000000006          5.5936454379712230E-011
  0.81500000000000017          6.7328482516554587E-011
  0.81800000000000006          7.8338756176889450E-011
  0.82100000000000017          8.8362749860720366E-011
  0.82400000000000007          9.6705380839672853E-011
  0.82700000000000018          1.0258268465976424E-010
  0.83000000000000007          1.0512312140106791E-010
  0.83300000000000018          1.0336711716411100E-010
  0.83600000000000008          9.6263849977636227E-011
  0.83900000000000019          8.2664099580805510E-011
  0.84200000000000008          6.1307658463922577E-011
  0.84500000000000020          3.0803321147686717E-011
  0.84800000000000009         -1.0398986112836923E-011
  0.85100000000000020         -6.4046506499161831E-011
  0.85400000000000009         -1.3213336595905296E-010
  0.85700000000000021         -2.1696356901119142E-010
  0.86000000000000010         -3.2122771036698661E-010
  0.86300000000000021         -4.4809652169195321E-010
  0.86600000000000010         -6.0132965774843698E-010
  0.86900000000000022         -7.8540414607596982E-010
  0.87200000000000011         -1.0056615377769209E-009
  0.87500000000000022         -1.2684750392947764E-009
  0.87800000000000011         -1.5814375863503876E-009
  0.88100000000000001         -1.9535748065379055E-009
  0.88400000000000012         -2.3955806198983796E-009
  0.88700000000000001         -2.9200787802642607E-009
  0.89000000000000012         -3.5419100868307162E-009
  0.89300000000000002         -4.2784497276485150E-009
  0.89600000000000013         -5.1499572381364791E-009
  0.89900000000000002         -6.1799609291718119E-009
  0.90200000000000014         -7.3956733510826394E-009
  0.90500000000000003         -8.8284499447887870E-009
  0.90800000000000014         -1.0514295535992356E-008
  0.91100000000000003         -1.2494389916303410E-008
  0.91400000000000015         -1.4815709156963727E-008
  0.91700000000000004         -1.7531643038456619E-008
  0.92000000000000015         -2.0702710049815325E-008
  0.92300000000000004         -2.4397304631178755E-008
  0.92600000000000016         -2.8692488002550707E-008
  0.92900000000000005         -3.3674886028873949E-008
  0.93200000000000016         -3.9441583976617387E-008
  0.93500000000000005         -4.6101101871098556E-008
  0.93800000000000017         -5.3774394165238382E-008
  0.94100000000000006         -6.2595977040281588E-008
  0.94400000000000017         -7.2714907184189200E-008
  0.94700000000000006         -8.4296057413161970E-008
  0.95000000000000018         -9.7521097162869637E-008
  0.95300000000000007         -1.1258974235100220E-007
  0.95600000000000018         -1.2972078917378229E-007
  0.95900000000000007         -1.4915301413610224E-007
  0.96200000000000019         -1.7114656161279119E-007
  0.96500000000000008         -1.9598338051545109E-007
  0.96800000000000019         -2.2396820939308054E-007
  0.97100000000000009         -2.5542926305446361E-007
  0.97400000000000020         -2.9071811792486119E-007
  0.97700000000000009         -3.3021072496663127E-007
  0.98000000000000020         -3.7430610123098759E-007
  0.98300000000000010         -4.2342685699315826E-007
  0.98600000000000021         -4.7801748141347321E-007
  0.98900000000000010         -5.3854396251406676E-007
  0.99200000000000021         -6.0549103069617440E-007
  0.99500000000000011         -6.7936080295128249E-007
  0.99800000000000022         -7.6066880145308882E-007
   1.0010000000000001         -8.4994089930677059E-007
   1.0040000000000002         -9.4770934535476965E-007
   1.0070000000000001         -1.0545082884110480E-006
   1.0100000000000000         -1.1708652463558635E-006
   1.0130000000000001         -1.2972989265971783E-006
   1.0160000000000000         -1.4343075226997883E-006
   1.0190000000000001         -1.5823641865487532E-006
   1.0220000000000000         -1.7419066489203775E-006
   1.0250000000000001         -1.9133262982082014E-006
   1.0280000000000000         -2.0969595467271782E-006
   1.0310000000000001         -2.2930736380470556E-006
   1.0340000000000000         -2.5018590372301580E-006
   1.0370000000000001         -2.7234127425897250E-006
   1.0400000000000000         -2.9577272402772341E-006
   1.0430000000000001         -3.2046781852582078E-006
   1.0460000000000000         -3.4640067688959434E-006
   1.0490000000000002         -3.7353088015156301E-006
   1.0520000000000000         -4.0180219858567915E-006
   1.0550000000000002         -4.3114110121977784E-006
   1.0580000000000001         -4.6145499189307660E-006
   1.0610000000000002         -4.9263197263319060E-006
   1.0640000000000001         -5.2453974477704336E-006
   1.0670000000000002         -5.5702342954151233E-006
   1.0700000000000001         -5.8990616795714622E-006
   1.0730000000000002         -6.2298791310726382E-006
   1.0760000000000001         -6.5604528828166178E-006
   1.0790000000000002         -6.8883053815998362E-006
   1.0820000000000001         -7.2107344129374242E-006
   1.0850000000000002         -7.5248112496916803E-006
   1.0880000000000001         -7.8273795425825040E-006
   1.0910000000000002         -8.1150855516477289E-006
   1.0940000000000001         -8.3843683047992170E-006
   1.0970000000000002         -8.6315128803609525E-006
