 -0.39999999999999997          0.0000000000000000     
 -0.39699999999999996          0.0000000000000000     
 -0.39399999999999996          0.0000000000000000     
 -0.39099999999999996          0.0000000000000000     
 -0.38799999999999996          0.0000000000000000     
 -0.38499999999999995          0.0000000000000000     
 -0.38199999999999995          0.0000000000000000     
 -0.37899999999999995          0.0000000000000000     
 -0.37599999999999995          0.0000000000000000     
 -0.37299999999999994          0.0000000000000000     
 -0.37000000000000000          0.0000000000000000     
 -0.36699999999999999          0.0000000000000000     
 -0.36399999999999999          0.0000000000000000     
 -0.36099999999999999          0.0000000000000000     
 -0.35799999999999998          0.0000000000000000     
 -0.35499999999999998          0.0000000000000000     
 -0.35199999999999998          0.0000000000000000     
 -0.34899999999999998          0.0000000000000000     
 -0.34599999999999997          0.0000000000000000     
 -0.34299999999999997          0.0000000000000000     
 -0.33999999999999997          0.0000000000000000     
 -0.33699999999999997          0.0000000000000000     
 -0.33399999999999996          0.0000000000000000     
 -0.33099999999999996          0.0000000000000000     
 -0.32799999999999996          0.0000000000000000     
 -0.32499999999999996          0.0000000000000000     
 -0.32199999999999995          0.0000000000000000     
 -0.31899999999999995          0.0000000000000000     
 -0.31599999999999995          0.0000000000000000     
 -0.31299999999999994          0.0000000000000000     
 -0.30999999999999994          0.0000000000000000     
 -0.30699999999999994          0.0000000000000000     
 -0.30399999999999994          0.0000000000000000     
 -0.30099999999999993          0.0000000000000000     
 -0.29799999999999993          0.0000000000000000     
 -0.29499999999999998          0.0000000000000000     
 -0.29199999999999998          0.0000000000000000     
 -0.28899999999999998          0.0000000000000000     
 -0.28599999999999998          0.0000000000000000     
 -0.28299999999999997          0.0000000000000000     
 -0.27999999999999997          0.0000000000000000     
 -0.27699999999999997          0.0000000000000000     
 -0.27399999999999997          0.0000000000000000     
 -0.27099999999999996          0.0000000000000000     
 -0.26799999999999996          0.0000000000000000     
 -0.26499999999999996          0.0000000000000000     
 -0.26199999999999996          0.0000000000000000     
 -0.25899999999999995          0.0000000000000000     
 -0.25599999999999995          0.0000000000000000     
 -0.25300000000000000          0.0000000000000000     
 -0.24999999999999997          0.0000000000000000     
 -0.24699999999999997          0.0000000000000000     
 -0.24399999999999997          0.0000000000000000     
 -0.24099999999999996          0.0000000000000000     
 -0.23799999999999996          0.0000000000000000     
 -0.23499999999999996          0.0000000000000000     
 -0.23199999999999996          0.0000000000000000     
 -0.22899999999999995          0.0000000000000000     
 -0.22599999999999995          0.0000000000000000     
 -0.22299999999999998          0.0000000000000000     
 -0.21999999999999997          0.0000000000000000     
 -0.21699999999999997          0.0000000000000000     
 -0.21399999999999997          0.0000000000000000     
 -0.21099999999999997          0.0000000000000000     
 -0.20799999999999996          0.0000000000000000     
 -0.20499999999999996          0.0000000000000000     
 -0.20199999999999996          0.0000000000000000     
 -0.19899999999999995          0.0000000000000000     
 -0.19599999999999995          0.0000000000000000     
 -0.19299999999999995          0.0000000000000000     
 -0.18999999999999997          0.0000000000000000     
 -0.18699999999999997          0.0000000000000000     
 -0.18399999999999997          0.0000000000000000     
 -0.18099999999999997          0.0000000000000000     
 -0.17799999999999996          0.0000000000000000     
 -0.17499999999999996          0.0000000000000000     
 -0.17199999999999996          0.0000000000000000     
 -0.16899999999999996          0.0000000000000000     
 -0.16599999999999995          0.0000000000000000     
 -0.16299999999999995          0.0000000000000000     
 -0.15999999999999998          0.0000000000000000     
 -0.15699999999999997          0.0000000000000000     
 -0.15399999999999997          0.0000000000000000     
 -0.15099999999999997          0.0000000000000000     
 -0.14799999999999996          0.0000000000000000     
 -0.14499999999999996          0.0000000000000000     
 -0.14199999999999996          0.0000000000000000     
 -0.13899999999999996          0.0000000000000000     
 -0.13599999999999995          0.0000000000000000     
 -0.13299999999999995          0.0000000000000000     
 -0.12999999999999995          0.0000000000000000     
 -0.12699999999999995          0.0000000000000000     
 -0.12399999999999994          0.0000000000000000     
 -0.12099999999999994          0.0000000000000000     
 -0.11799999999999994          0.0000000000000000     
 -0.11499999999999994          0.0000000000000000     
 -0.11199999999999993          0.0000000000000000     
 -0.10899999999999999          0.0000000000000000     
 -0.10599999999999998          0.0000000000000000     
 -0.10299999999999998          0.0000000000000000     
  -9.9999999999999978E-002     0.0000000000000000     
  -9.6999999999999975E-002     0.0000000000000000     
  -9.3999999999999972E-002     0.0000000000000000     
  -9.0999999999999970E-002     0.0000000000000000     
  -8.7999999999999967E-002     0.0000000000000000     
  -8.4999999999999964E-002     0.0000000000000000     
  -8.1999999999999962E-002     0.0000000000000000     
  -7.8999999999999959E-002     0.0000000000000000     
  -7.5999999999999956E-002     0.0000000000000000     
  -7.2999999999999954E-002     0.0000000000000000     
  -6.9999999999999951E-002     0.0000000000000000     
  -6.6999999999999948E-002     0.0000000000000000     
  -6.3999999999999946E-002     0.0000000000000000     
  -6.0999999999999943E-002     0.0000000000000000     
  -5.7999999999999940E-002     0.0000000000000000     
  -5.4999999999999938E-002     0.0000000000000000     
  -5.1999999999999935E-002     0.0000000000000000     
  -4.8999999999999932E-002     0.0000000000000000     
  -4.5999999999999985E-002     0.0000000000000000     
  -4.2999999999999983E-002     0.0000000000000000     
  -3.9999999999999980E-002     0.0000000000000000     
  -3.6999999999999977E-002     0.0000000000000000     
  -3.3999999999999975E-002     0.0000000000000000     
  -3.0999999999999972E-002     0.0000000000000000     
  -2.7999999999999969E-002     0.0000000000000000     
  -2.4999999999999967E-002     0.0000000000000000     
  -2.1999999999999964E-002     0.0000000000000000     
  -1.8999999999999961E-002     0.0000000000000000     
  -1.5999999999999959E-002     0.0000000000000000     
  -1.2999999999999956E-002     0.0000000000000000     
  -9.9999999999999534E-003     0.0000000000000000     
  -6.9999999999999507E-003     0.0000000000000000     
  -3.9999999999999480E-003     0.0000000000000000     
  -9.9999999999994538E-004     0.0000000000000000     
   2.0000000000000573E-003     0.0000000000000000     
   5.0000000000000600E-003     0.0000000000000000     
   8.0000000000000626E-003     0.0000000000000000     
   1.1000000000000065E-002     0.0000000000000000     
   1.4000000000000068E-002     0.0000000000000000     
   1.7000000000000015E-002     0.0000000000000000     
   2.0000000000000018E-002     0.0000000000000000     
   2.3000000000000020E-002     0.0000000000000000     
   2.6000000000000023E-002     0.0000000000000000     
   2.9000000000000026E-002     0.0000000000000000     
   3.2000000000000028E-002     0.0000000000000000     
   3.5000000000000031E-002     0.0000000000000000     
   3.8000000000000034E-002     0.0000000000000000     
   4.1000000000000036E-002     0.0000000000000000     
   4.4000000000000039E-002     0.0000000000000000     
   4.7000000000000042E-002     0.0000000000000000     
   5.0000000000000044E-002     0.0000000000000000     
   5.3000000000000047E-002     0.0000000000000000     
   5.6000000000000050E-002     0.0000000000000000     
   5.9000000000000052E-002     0.0000000000000000     
   6.2000000000000055E-002     0.0000000000000000     
   6.5000000000000058E-002     0.0000000000000000     
   6.8000000000000060E-002     0.0000000000000000     
   7.1000000000000063E-002     0.0000000000000000     
   7.4000000000000066E-002     0.0000000000000000     
   7.7000000000000068E-002     0.0000000000000000     
   8.0000000000000016E-002     0.0000000000000000     
   8.3000000000000018E-002     0.0000000000000000     
   8.6000000000000021E-002    -2.2434191575415276E-042
   8.9000000000000024E-002     0.0000000000000000     
   9.2000000000000026E-002     4.5288351936663513E-042
   9.5000000000000029E-002     8.5817993278887393E-042
   9.8000000000000032E-002    -5.8659568058341924E-042
  0.10100000000000003          3.6569677400090655E-041
  0.10400000000000004          4.5149759754163021E-041
  0.10700000000000004          4.3623394557176387E-040
  0.11000000000000004          7.1611768035002303E-040
  0.11300000000000004          3.4506746541444938E-040
  0.11600000000000005         -9.7951439435653914E-040
  0.11900000000000005         -2.4308747149371291E-039
  0.12200000000000005         -2.6569753291223599E-039
  0.12500000000000006          2.9803765840750643E-039
  0.12800000000000006          9.4380677418606701E-039
  0.13100000000000006          1.0736162137510390E-038
  0.13400000000000006         -1.1396858938147066E-038
  0.13700000000000007         -3.7481726409059669E-038
  0.14000000000000007         -3.8134105130840626E-038
  0.14300000000000007         -1.1103044253953380E-038
  0.14600000000000007          8.2415954051844593E-038
  0.14900000000000008          1.7629035897963318E-037
  0.15200000000000008          1.5132047357880820E-037
  0.15500000000000008         -7.0222610891282928E-038
  0.15800000000000008         -4.6033344868958281E-037
  0.16100000000000009         -7.2168264029659319E-037
  0.16400000000000009         -4.1688369504307412E-037
  0.16700000000000009          6.8351848415302677E-037
  0.17000000000000010          2.1343075392244698E-036
  0.17300000000000010          2.6550012654072814E-036
  0.17600000000000010          7.3557501806509726E-037
  0.17899999999999999         -3.9144735025460913E-036
  0.18200000000000000         -8.8889890777326010E-036
  0.18500000000000000         -9.1231154880182700E-036
  0.18800000000000000          2.1139905366970050E-037
  0.19100000000000000          1.8404222500263475E-035
  0.19400000000000001          3.4818151312318454E-035
  0.19700000000000001          3.0702578118851202E-035
  0.20000000000000001         -9.1588286859012815E-036
  0.20300000000000001         -7.7952222831788112E-035
  0.20600000000000002         -1.3367487525506670E-034
  0.20900000000000002         -1.0859173100447735E-034
  0.21200000000000002          4.8418649743294056E-035
  0.21500000000000002          3.0844248133735368E-034
  0.21800000000000003          5.1872523785646036E-034
  0.22100000000000003          4.3446227603204938E-034
  0.22400000000000003         -1.3970945977921233E-034
  0.22700000000000004         -1.1323102955298927E-033
  0.23000000000000004         -2.0365173311228723E-033
  0.23300000000000004         -1.9718446529755963E-033
  0.23600000000000004         -1.0883693534353242E-034
  0.23900000000000005          3.5995193949207917E-033
  0.24200000000000005          7.7197933723377471E-033
  0.24500000000000005          9.2432406784304852E-033
  0.24800000000000005          4.6328198312991944E-033
  0.25100000000000006         -7.8967697820968310E-033
  0.25400000000000006         -2.5604145311476307E-032
  0.25700000000000006         -3.9578232776063979E-032
  0.26000000000000006         -3.6236944045842823E-032
  0.26300000000000007         -3.2573694665475349E-033
  0.26600000000000007          6.0846046879250603E-032
  0.26900000000000007          1.3724694028205506E-031
  0.27200000000000008          1.8374115302220690E-031
  0.27500000000000008          1.4465150145388059E-031
  0.27800000000000008         -2.3395042400946506E-032
  0.28100000000000008         -3.1475898621902670E-031
  0.28400000000000009         -6.4204276483972784E-031
  0.28700000000000009         -8.2971180840118150E-031
  0.29000000000000009         -6.5569287601412023E-031
  0.29300000000000009          5.1098603252478450E-032
  0.29600000000000010          1.2759120160398773E-030
  0.29900000000000010          2.6971263009636866E-030
  0.30200000000000010          3.6543235118785949E-030
  0.30499999999999999          3.2794803260783535E-030
  0.30800000000000000          8.2408844316517880E-031
  0.31100000000000000         -3.8664856450497579E-030
  0.31400000000000000         -9.8837254818759576E-030
  0.31700000000000000         -1.5030660785482141E-029
  0.32000000000000001         -1.6097751488641371E-029
  0.32300000000000001         -9.8029949876897547E-030
  0.32600000000000001          5.6638935720109880E-030
  0.32900000000000001          2.8869147663416710E-029
  0.33200000000000002          5.3821972817564534E-029
  0.33500000000000002          6.9980416613192453E-029
  0.33800000000000002          6.4313377071595531E-029
  0.34100000000000003          2.5651753549010140E-029
  0.34400000000000003         -4.9303855256155507E-029
  0.34700000000000003         -1.4998884024627926E-028
  0.35000000000000003         -2.4853383464412556E-028
  0.35300000000000004         -3.0167165556320106E-028
  0.35600000000000004         -2.6003620128796697E-028
  0.35900000000000004         -8.4958377755733601E-029
  0.36200000000000004          2.3005784750501636E-028
  0.36500000000000005          6.3922936994438046E-028
  0.36800000000000005          1.0342569953814595E-027
  0.37100000000000005          1.2528384313556171E-027
  0.37400000000000005          1.1120458724101282E-027
  0.37700000000000006          4.6636990738338005E-028
  0.38000000000000006         -7.1889883437451020E-028
  0.38300000000000006         -2.2981755149771055E-027
  0.38600000000000007         -3.9067938071690889E-027
  0.38900000000000007         -4.9811194270861380E-027
  0.39200000000000007         -4.8582189898583469E-027
  0.39500000000000007         -2.9575724775792406E-027
  0.39800000000000008          9.7943214409865527E-028
  0.40100000000000008          6.6464599535227776E-027
  0.40400000000000008          1.3004949273760145E-026
  0.40700000000000008          1.8281317812733546E-026
  0.41000000000000009          2.0202085062261083E-026
  0.41300000000000009          1.6495873257460062E-026
  0.41600000000000009          5.6186517358069106E-027
  0.41900000000000009         -1.2428958351887779E-026
  0.42200000000000010         -3.5406321368471092E-026
  0.42500000000000010         -5.8522684371217931E-026
  0.42800000000000010         -7.4767482429439317E-026
  0.43100000000000011         -7.6045718920187482E-026
  0.43400000000000000         -5.5112792507310730E-026
  0.43700000000000000         -8.0660965800299965E-027
  0.44000000000000000          6.3101945483590629E-026
  0.44300000000000000          1.4859474000520604E-025
  0.44600000000000001          2.3033694180469285E-025
  0.44900000000000001          2.8362758048046050E-025
  0.45200000000000001          2.8127940225027598E-025
  0.45500000000000002          2.0006982991261304E-025
  0.45800000000000002          2.8626190305685494E-026
  0.46100000000000002         -2.2481477247321638E-025
  0.46400000000000002         -5.2687586567001554E-025
  0.46700000000000003         -8.1799614765367557E-025
  0.47000000000000003         -1.0177714015378727E-024
  0.47300000000000003         -1.0376126089524009E-024
  0.47600000000000003         -8.0012983306231865E-025
  0.47900000000000004         -2.6275933895915183E-025
  0.48200000000000004          5.5873021995206082E-025
  0.48500000000000004          1.5726360026513472E-024
  0.48800000000000004          2.6059113489092537E-024
  0.49100000000000005          3.4163694351009500E-024
  0.49400000000000005          3.7255132866161496E-024
  0.49700000000000005          3.2711626508407197E-024
  0.50000000000000000          1.8741806866813961E-024
  0.50300000000000011         -4.9141854400660417E-025
  0.50600000000000001         -3.6397914120388466E-024
  0.50900000000000012         -7.1427662414648952E-024
  0.51200000000000001         -1.0343293070420473E-023
  0.51500000000000012         -1.2423545617450212E-023
  0.51800000000000002         -1.2529830705557197E-023
  0.52100000000000013         -9.9449494259213246E-024
  0.52400000000000002         -4.2857652567514450E-024
  0.52700000000000014          4.3079931320512534E-024
  0.53000000000000003          1.5035494646193657E-023
  0.53300000000000014          2.6390244640435657E-023
  0.53600000000000003          3.6246070610418453E-023
  0.53900000000000015          4.2093508477471662E-023
  0.54200000000000004          4.1423139909419136E-023
  0.54500000000000015          3.2222115784566310E-023
  0.54800000000000004          1.3518989307377332E-023
  0.55100000000000016         -1.4113996710422913E-023
  0.55400000000000005         -4.8208708009462167E-023
  0.55700000000000016         -8.4306149239443388E-023
  0.56000000000000005         -1.1620554936267112E-022
  0.56299999999999994         -1.3660483704437912E-022
  0.56600000000000006         -1.3812070742134120E-022
  0.56899999999999995         -1.1460441789171728E-022
  0.57200000000000006         -6.2598915112360889E-023
  0.57499999999999996          1.7281197706719679E-023
  0.57800000000000007          1.1930943053773481E-022
  0.58099999999999996          2.3220799537325946E-022
  0.58400000000000007          3.3953965717671063E-022
  0.58699999999999997          4.2107464196591140E-022
  0.59000000000000008          4.5515392626613631E-022
  0.59299999999999997          4.2191064664280370E-022
  0.59600000000000009          3.0703808254057499E-022
  0.59899999999999998          1.0564239988210310E-022
  0.60200000000000009         -1.7441304075571428E-022
  0.60500000000000020         -5.1032486628642405E-022
  0.60800000000000010         -8.6395124447807049E-022
  0.61100000000000021         -1.1836925962429428E-021
  0.61400000000000010         -1.4089296176299137E-021
  0.61700000000000021         -1.4769880863138768E-021
  0.62000000000000011         -1.3321694582222616E-021
  0.62300000000000022         -9.3606439655915421E-022
  0.62600000000000011         -2.7792209087987482E-022
  0.62900000000000000          6.1642168546824285E-022
  0.63200000000000012          1.6786796727359396E-021
  0.63500000000000001          2.7969243323721042E-021
  0.63800000000000012          3.8203671423230717E-021
  0.64100000000000001          4.5709228496654903E-021
  0.64400000000000013          4.8615973103162224E-021
  0.64700000000000002          4.5208163010503383E-021
  0.65000000000000013          3.4207851650779725E-021
  0.65300000000000002          1.5070788698515219E-021
  0.65600000000000014         -1.1745051516540605E-021
  0.65900000000000003         -4.4578680430696350E-021
  0.66200000000000014         -8.0479179455905256E-021
  0.66500000000000004         -1.1527222450777664E-020
  0.66800000000000015         -1.4380812292502865E-020
  0.67100000000000004         -1.6040512916150565E-020
  0.67400000000000015         -1.5947662274374757E-020
  0.67700000000000005         -1.3630668831524801E-020
  0.68000000000000016         -8.7906935203756396E-021
  0.68300000000000005         -1.3864940300521596E-021
  0.68600000000000017          8.2927817554724101E-021
  0.68900000000000006          1.9579514302544304E-020
  0.69200000000000017          3.1416243457385915E-020
  0.69500000000000006          4.2391796044022108E-020
  0.69800000000000018          5.0831774110941873E-020
  0.70100000000000007          5.4945629797037369E-020
  0.70400000000000018          5.3025569122494148E-020
  0.70700000000000007          4.3684726190040773E-020
  0.71000000000000019          2.6115454388798176E-020
  0.71300000000000008          3.3904039179171653E-022
  0.71600000000000019         -3.2584518606273187E-020
  0.71900000000000008         -7.0422685920669894E-020
  0.72200000000000020         -1.0974807814201485E-019
  0.72500000000000009         -1.4605591767103434E-019
  0.72800000000000020         -1.7404158710424473E-019
  0.73100000000000009         -1.8804381159897161E-019
  0.73400000000000021         -1.8263859004551463E-019
  0.73700000000000010         -1.5335134620207882E-019
  0.74000000000000021         -9.7430885532146542E-020
  0.74300000000000010         -1.4608157908736324E-020
  0.74600000000000022          9.2252362437796312E-020
  0.74900000000000011          2.1670678248268933E-019
  0.75200000000000022          3.4859607646521454E-019
  0.75500000000000012          4.7430529107785952E-019
  0.75800000000000001          5.7748372617190183E-019
  0.76100000000000012          6.4024879521535231E-019
  0.76400000000000001          6.4485594819305499E-019
  0.76700000000000013          5.7575267052502116E-019
  0.77000000000000002          4.2187694427129605E-019
  0.77300000000000013          1.7900088420842566E-019
  0.77600000000000002         -1.4812194967726907E-019
  0.77900000000000014         -5.4409654220922130E-019
  0.78200000000000003         -9.8200410388580600E-019
  0.78500000000000014         -1.4235717419848310E-018
  0.78800000000000003         -1.8206214320369549E-018
  0.79100000000000015         -2.1179296276085771E-018
  0.79400000000000004         -2.2575272085041179E-018
  0.79700000000000015         -2.1842993378772467E-018
  0.80000000000000004         -1.8526030620305556E-018
  0.80300000000000016         -1.2334221376640004E-018
  0.80600000000000005         -3.2141872612469500E-019
  0.80900000000000016          8.5881772377028632E-019
  0.81200000000000006          2.2482543269167545E-018
  0.81500000000000017          3.7513990904069630E-018
  0.81800000000000006          5.2376144034058746E-018
  0.82100000000000017          6.5463686588144744E-018
  0.82400000000000007          7.4967648209062185E-018
  0.82700000000000018          7.9013219196068475E-018
  0.83000000000000007          7.5836317874867331E-018
  0.83300000000000018          6.3989326044992642E-018
  0.83600000000000008          4.2561447496538651E-018
  0.83900000000000019          1.1396533269221935E-018
  0.84200000000000008         -2.8715189601241020E-018
  0.84500000000000020         -7.5896869979324610E-018
  0.84800000000000009         -1.2711838832938074E-017
  0.85100000000000020         -1.7822964989960283E-017
  0.85400000000000009         -2.2410974269803269E-017
  0.85700000000000021         -2.5894610605351221E-017
  0.86000000000000010         -2.7664090201074028E-017
  0.86300000000000021         -2.7133761054892053E-017
  0.86600000000000010         -2.3804259320563088E-017
  0.86900000000000022         -1.7330176723943304E-017
  0.87200000000000011         -7.5880681360119883E-018
  0.87500000000000022          5.2612904278090813E-018
  0.87800000000000011          2.0723593983900547E-017
  0.88100000000000001          3.7942255066732734E-017
  0.88400000000000012          5.5697166866871124E-017
  0.88700000000000001          7.2436347604844709E-017
  0.89000000000000012          8.6345956138451556E-017
  0.89300000000000002          9.5459686764885738E-017
  0.89600000000000013          9.7805054603701139E-017
  0.89900000000000002          9.1583471998379785E-017
  0.90200000000000014          7.5372287552564008E-017
  0.90500000000000003          4.8338089534711311E-017
  0.90800000000000014          1.0441551318359948E-017
  0.91100000000000003         -3.7382114890587875E-017
  0.91400000000000015         -9.3093590588999698E-017
  0.91700000000000004         -1.5348784174890704E-016
  0.92000000000000015         -2.1422202467159281E-016
  0.92300000000000004         -2.6995052659891923E-016
  0.92600000000000016         -3.1457558904880112E-016
  0.92900000000000005         -3.4161603199838538E-016
  0.93200000000000016         -3.4468792449999419E-016
  0.93500000000000005         -3.1808062713702081E-016
  0.93800000000000017         -2.5739128785600740E-016
  0.94100000000000006         -1.6018715769510570E-016
  0.94400000000000017         -2.6633558731453758E-017
  0.94700000000000006          1.3995674119185245E-016
  0.95000000000000018          3.3273725249535145E-016
  0.95300000000000007          5.4114536021136224E-016
  0.95600000000000018          7.5099941089172381E-016
  0.95900000000000007          9.4491070839709072E-016
  0.96200000000000019          1.1030506508754162E-015
  0.96500000000000008          1.2042749346265154E-015
  0.96800000000000019          1.2275801670906393E-015
  0.97100000000000009          1.1538518061996386E-015
  0.97400000000000020          9.6782617333126503E-016
  0.97700000000000009          6.6013224878029732E-016
  0.98000000000000020          2.2925938711903882E-016
  0.98300000000000010         -3.1666838895950200E-016
  0.98600000000000021         -9.5854766248993571E-016
  0.98900000000000010         -1.6655533445552992E-015
  0.99200000000000021         -2.3951546011809585E-015
  0.99500000000000011         -3.0940677460782851E-015
  0.99800000000000022         -3.7002118842745981E-015
   1.0010000000000001         -4.1457759301621725E-015
   1.0040000000000002         -4.3613205201753357E-015
   1.0070000000000001         -4.2807807999811872E-015
   1.0100000000000000         -3.8472641500476324E-015
   1.0130000000000001         -3.0192615576234092E-015
   1.0160000000000000         -1.7769124374860118E-015
   1.0190000000000001         -1.2783126140368649E-016
   1.0220000000000000          1.8879104212338253E-015
   1.0250000000000001          4.1943218482893034E-015
   1.0280000000000000          6.6780371964086410E-015
   1.0310000000000001          9.1892768062096550E-015
   1.0340000000000000          1.1545725134619708E-014
   1.0370000000000001          1.3539544448942904E-014
   1.0400000000000000          1.4947584675763313E-014
   1.0430000000000001          1.5544556048929555E-014
   1.0460000000000000          1.5119105700271213E-014
   1.0490000000000002          1.3491713700664702E-014
   1.0520000000000000          1.0533699646652174E-014
   1.0550000000000002          6.1864553878410084E-015
   1.0580000000000001          4.7909434177289021E-016
   1.0610000000000002         -6.4567776866620167E-015
   1.0640000000000001         -1.4376627579176532E-014
   1.0670000000000002         -2.2918282835119600E-014
   1.0700000000000001         -3.1604961214738568E-014
   1.0730000000000002         -3.9856408710911656E-014
   1.0760000000000001         -4.7009355627004257E-014
   1.0790000000000002         -5.2347315904605464E-014
   1.0820000000000001         -5.5139540003745000E-014
   1.0850000000000002         -5.4687830869745008E-014
   1.0880000000000001         -5.0380061089304877E-014
   1.0910000000000002         -4.1747353636786006E-014
   1.0940000000000001         -2.8521935966319091E-014
   1.0970000000000002         -1.0692469770706711E-014
