 -0.39999999999999997          0.0000000000000000     
 -0.39699999999999996          0.0000000000000000     
 -0.39399999999999996          0.0000000000000000     
 -0.39099999999999996          0.0000000000000000     
 -0.38799999999999996          0.0000000000000000     
 -0.38499999999999995          0.0000000000000000     
 -0.38199999999999995          0.0000000000000000     
 -0.37899999999999995          0.0000000000000000     
 -0.37599999999999995          0.0000000000000000     
 -0.37299999999999994          0.0000000000000000     
 -0.37000000000000000          0.0000000000000000     
 -0.36699999999999999          0.0000000000000000     
 -0.36399999999999999          0.0000000000000000     
 -0.36099999999999999          0.0000000000000000     
 -0.35799999999999998          0.0000000000000000     
 -0.35499999999999998          0.0000000000000000     
 -0.35199999999999998          0.0000000000000000     
 -0.34899999999999998          0.0000000000000000     
 -0.34599999999999997          0.0000000000000000     
 -0.34299999999999997          0.0000000000000000     
 -0.33999999999999997          0.0000000000000000     
 -0.33699999999999997          0.0000000000000000     
 -0.33399999999999996          0.0000000000000000     
 -0.33099999999999996          0.0000000000000000     
 -0.32799999999999996          0.0000000000000000     
 -0.32499999999999996          0.0000000000000000     
 -0.32199999999999995          0.0000000000000000     
 -0.31899999999999995          0.0000000000000000     
 -0.31599999999999995          0.0000000000000000     
 -0.31299999999999994          0.0000000000000000     
 -0.30999999999999994          0.0000000000000000     
 -0.30699999999999994          0.0000000000000000     
 -0.30399999999999994          0.0000000000000000     
 -0.30099999999999993          0.0000000000000000     
 -0.29799999999999993          0.0000000000000000     
 -0.29499999999999998          0.0000000000000000     
 -0.29199999999999998          0.0000000000000000     
 -0.28899999999999998          0.0000000000000000     
 -0.28599999999999998          0.0000000000000000     
 -0.28299999999999997          0.0000000000000000     
 -0.27999999999999997          0.0000000000000000     
 -0.27699999999999997          0.0000000000000000     
 -0.27399999999999997          0.0000000000000000     
 -0.27099999999999996          0.0000000000000000     
 -0.26799999999999996          0.0000000000000000     
 -0.26499999999999996          0.0000000000000000     
 -0.26199999999999996          0.0000000000000000     
 -0.25899999999999995          0.0000000000000000     
 -0.25599999999999995          0.0000000000000000     
 -0.25300000000000000          0.0000000000000000     
 -0.24999999999999997          0.0000000000000000     
 -0.24699999999999997          0.0000000000000000     
 -0.24399999999999997          0.0000000000000000     
 -0.24099999999999996          0.0000000000000000     
 -0.23799999999999996          0.0000000000000000     
 -0.23499999999999996          0.0000000000000000     
 -0.23199999999999996          0.0000000000000000     
 -0.22899999999999995          0.0000000000000000     
 -0.22599999999999995          0.0000000000000000     
 -0.22299999999999998          0.0000000000000000     
 -0.21999999999999997          0.0000000000000000     
 -0.21699999999999997          0.0000000000000000     
 -0.21399999999999997          0.0000000000000000     
 -0.21099999999999997          0.0000000000000000     
 -0.20799999999999996          0.0000000000000000     
 -0.20499999999999996          0.0000000000000000     
 -0.20199999999999996          0.0000000000000000     
 -0.19899999999999995          0.0000000000000000     
 -0.19599999999999995          0.0000000000000000     
 -0.19299999999999995          0.0000000000000000     
 -0.18999999999999997          0.0000000000000000     
 -0.18699999999999997          0.0000000000000000     
 -0.18399999999999997          0.0000000000000000     
 -0.18099999999999997          0.0000000000000000     
 -0.17799999999999996          0.0000000000000000     
 -0.17499999999999996          0.0000000000000000     
 -0.17199999999999996          0.0000000000000000     
 -0.16899999999999996          0.0000000000000000     
 -0.16599999999999995          0.0000000000000000     
 -0.16299999999999995          0.0000000000000000     
 -0.15999999999999998          0.0000000000000000     
 -0.15699999999999997          0.0000000000000000     
 -0.15399999999999997          0.0000000000000000     
 -0.15099999999999997          0.0000000000000000     
 -0.14799999999999996          0.0000000000000000     
 -0.14499999999999996          0.0000000000000000     
 -0.14199999999999996          0.0000000000000000     
 -0.13899999999999996          0.0000000000000000     
 -0.13599999999999995          0.0000000000000000     
 -0.13299999999999995          0.0000000000000000     
 -0.12999999999999995          0.0000000000000000     
 -0.12699999999999995          0.0000000000000000     
 -0.12399999999999994          0.0000000000000000     
 -0.12099999999999994          0.0000000000000000     
 -0.11799999999999994          0.0000000000000000     
 -0.11499999999999994          0.0000000000000000     
 -0.11199999999999993          0.0000000000000000     
 -0.10899999999999999          0.0000000000000000     
 -0.10599999999999998          0.0000000000000000     
 -0.10299999999999998          0.0000000000000000     
  -9.9999999999999978E-002     0.0000000000000000     
  -9.6999999999999975E-002     0.0000000000000000     
  -9.3999999999999972E-002     0.0000000000000000     
  -9.0999999999999970E-002     0.0000000000000000     
  -8.7999999999999967E-002     0.0000000000000000     
  -8.4999999999999964E-002     0.0000000000000000     
  -8.1999999999999962E-002     0.0000000000000000     
  -7.8999999999999959E-002     0.0000000000000000     
  -7.5999999999999956E-002     0.0000000000000000     
  -7.2999999999999954E-002     0.0000000000000000     
  -6.9999999999999951E-002     0.0000000000000000     
  -6.6999999999999948E-002     0.0000000000000000     
  -6.3999999999999946E-002     0.0000000000000000     
  -6.0999999999999943E-002     0.0000000000000000     
  -5.7999999999999940E-002     0.0000000000000000     
  -5.4999999999999938E-002     0.0000000000000000     
  -5.1999999999999935E-002     0.0000000000000000     
  -4.8999999999999932E-002     0.0000000000000000     
  -4.5999999999999985E-002     0.0000000000000000     
  -4.2999999999999983E-002     0.0000000000000000     
  -3.9999999999999980E-002     0.0000000000000000     
  -3.6999999999999977E-002     0.0000000000000000     
  -3.3999999999999975E-002     0.0000000000000000     
  -3.0999999999999972E-002     0.0000000000000000     
  -2.7999999999999969E-002     0.0000000000000000     
  -2.4999999999999967E-002     0.0000000000000000     
  -2.1999999999999964E-002     0.0000000000000000     
  -1.8999999999999961E-002     0.0000000000000000     
  -1.5999999999999959E-002     0.0000000000000000     
  -1.2999999999999956E-002     0.0000000000000000     
  -9.9999999999999534E-003     0.0000000000000000     
  -6.9999999999999507E-003     0.0000000000000000     
  -3.9999999999999480E-003     0.0000000000000000     
  -9.9999999999994538E-004     0.0000000000000000     
   2.0000000000000573E-003     0.0000000000000000     
   5.0000000000000600E-003     0.0000000000000000     
   8.0000000000000626E-003     0.0000000000000000     
   1.1000000000000065E-002     0.0000000000000000     
   1.4000000000000068E-002     0.0000000000000000     
   1.7000000000000015E-002     1.7379004292360266E-041
   2.0000000000000018E-002     2.7712432167875421E-041
   2.3000000000000020E-002     0.0000000000000000     
   2.6000000000000023E-002    -5.9658905457226987E-041
   2.9000000000000026E-002     4.2551580146237203E-041
   3.2000000000000028E-002     2.1214339099487024E-039
   3.5000000000000031E-002     3.0998639051572746E-039
   3.8000000000000034E-002    -5.7263290159285654E-040
   4.1000000000000036E-002    -7.6169798792569576E-039
   4.4000000000000039E-002    -1.2046137617759864E-038
   4.7000000000000042E-002     1.2070643318039315E-038
   5.0000000000000044E-002     4.8557554507217222E-038
   5.3000000000000047E-002     5.8100213351937977E-038
   5.6000000000000050E-002    -1.5868398547280931E-038
   5.9000000000000052E-002    -1.6583792342450614E-037
   6.2000000000000055E-002    -2.6278847521515196E-037
   6.5000000000000058E-002    -7.1872944669262164E-038
   6.8000000000000060E-002     4.9430594643395041E-037
   7.1000000000000063E-002     1.0561009174959742E-036
   7.4000000000000066E-002     7.3642235031610532E-037
   7.7000000000000068E-002    -1.1403598377065330E-036
   8.0000000000000016E-002    -3.7677761990804057E-036
   8.3000000000000018E-002    -4.1798563943777447E-036
   8.6000000000000021E-002     1.0750371860959297E-036
   8.9000000000000024E-002     1.1489446082746575E-035
   9.2000000000000026E-002     1.8455106040996108E-035
   9.5000000000000029E-002     7.7078287201439862E-036
   9.8000000000000032E-002    -2.7311979085163150E-035
  0.10100000000000003         -6.7102031929858410E-035
  0.10400000000000004         -6.2339590146889935E-035
  0.10700000000000004          3.3465978974324666E-035
  0.11000000000000004          1.9789821903578470E-034
  0.11300000000000004          2.9106884153246036E-034
  0.11600000000000005          1.0799725216067374E-034
  0.11900000000000005         -4.2638022058550937E-034
  0.12200000000000005         -1.0175209460806696E-033
  0.12500000000000006         -9.7501258457278860E-034
  0.12800000000000006          3.4276514203359708E-034
  0.13100000000000006          2.6780767334642079E-033
  0.13400000000000006          4.2484569027321002E-033
  0.13700000000000007          2.3358374184197924E-033
  0.14000000000000007         -4.4036217186318175E-033
  0.14300000000000007         -1.2955164281017553E-032
  0.14600000000000007         -1.5135333802054188E-032
  0.14900000000000008         -1.9918208380271073E-033
  0.15200000000000008          2.6678609297839670E-032
  0.15500000000000008          5.3679917766803365E-032
  0.15800000000000008          4.7136136216780157E-032
  0.16100000000000009         -1.8004491996172351E-032
  0.16400000000000009         -1.2619645477235324E-031
  0.16700000000000009         -2.0079330377041957E-031
  0.17000000000000010         -1.3046765990554570E-031
  0.17300000000000010          1.4427372767633976E-031
  0.17600000000000010          5.2267582850019067E-031
  0.17899999999999999          7.0627395874379520E-031
  0.18200000000000000          3.3051631825084109E-031
  0.18500000000000000         -7.2490514247633308E-031
  0.18800000000000000         -2.0059186022797299E-030
  0.19100000000000000         -2.4398911355238200E-030
  0.19400000000000001         -8.5206151610073142E-031
  0.19700000000000001          2.9960385015487224E-030
  0.20000000000000001          7.3989653427781443E-030
  0.20300000000000001          8.6790355048814254E-030
  0.20600000000000002          2.9256739534716806E-030
  0.20900000000000002         -1.0675803947065430E-029
  0.21200000000000002         -2.6609241337453434E-029
  0.21500000000000002         -3.2718430623910460E-029
  0.21800000000000003         -1.5266029177052752E-029
  0.22100000000000003          3.0826367781259281E-029
  0.22400000000000003          9.1003306974765014E-029
  0.22700000000000004          1.2746828521513418E-028
  0.23000000000000004          9.0983815629791388E-029
  0.23300000000000004         -4.9925441590301348E-029
  0.23600000000000004         -2.7173981357296680E-028
  0.23900000000000005         -4.7199732749032898E-028
  0.24200000000000005         -4.8465195935910260E-028
  0.24500000000000005         -1.5078958508922270E-028
  0.24800000000000005          5.6596952409973441E-028
  0.25100000000000006          1.4661943243645376E-027
  0.25400000000000006          2.0785638004297292E-027
  0.25700000000000006          1.7744947661290351E-027
  0.26000000000000006          5.9403869904811148E-029
  0.26300000000000007         -3.0247778757244738E-027
  0.26600000000000007         -6.5577809905814991E-027
  0.26900000000000007         -8.7000616163144606E-027
  0.27200000000000008         -7.1633959631321737E-027
  0.27500000000000008         -2.3847258714232339E-028
  0.27800000000000008          1.1858308289618435E-026
  0.28100000000000008          2.5867729957379410E-026
  0.28400000000000009          3.5337220380028016E-026
  0.28700000000000009          3.2076144907383727E-026
  0.29000000000000009          9.3795320424041214E-027
  0.29300000000000009         -3.3624656821631782E-026
  0.29600000000000010         -8.8048155578663983E-026
  0.29900000000000010         -1.3388125221548526E-025
  0.30200000000000010         -1.4322517831764753E-025
  0.30499999999999999         -8.9030289069445807E-026
  0.30800000000000000          4.1814518944442170E-026
  0.31100000000000000          2.3471142763027537E-025
  0.31400000000000000          4.3865937164415967E-025
  0.31700000000000000          5.6896446816488681E-025
  0.32000000000000001          5.2584690383481264E-025
  0.32300000000000001          2.2890629126735038E-025
  0.32600000000000001         -3.3910621431285383E-025
  0.32900000000000001         -1.0925340270968710E-024
  0.33200000000000002         -1.8248668366911042E-024
  0.33500000000000002         -2.2298689968907976E-024
  0.33800000000000002         -1.9716703467378752E-024
  0.34100000000000003         -7.9948590024085375E-025
  0.34400000000000003          1.3158786586044521E-024
  0.34700000000000003          4.0645176836963176E-024
  0.35000000000000003          6.7500270220849836E-024
  0.35300000000000004          8.3598141975744302E-024
  0.35600000000000004          7.7789093574292597E-024
  0.35900000000000004          4.1341156326272889E-024
  0.36200000000000004         -2.7948153954447889E-024
  0.36500000000000005         -1.2207933230987991E-023
  0.36800000000000005         -2.2102193098319656E-023
  0.37100000000000005         -2.9407416547058842E-023
  0.37400000000000005         -3.0525220734536030E-023
  0.37700000000000006         -2.2258285349505795E-023
  0.38000000000000006         -2.9902949870124421E-024
  0.38300000000000006          2.6151741498978849E-023
  0.38600000000000007          6.0515458247921324E-023
  0.38900000000000007          9.1899410838710360E-023
  0.39200000000000007          1.0957725671062236E-022
  0.39500000000000007          1.0245462911429426E-022
  0.39800000000000008          6.2145816567113299E-023
  0.40100000000000008         -1.3575151393111981E-023
  0.40400000000000008         -1.1778913254014246E-022
  0.40700000000000008         -2.3290007899154974E-022
  0.41000000000000009         -3.3147861307868020E-022
  0.41300000000000009         -3.8006338939886336E-022
  0.41600000000000009         -3.4590282316948955E-022
  0.41900000000000009         -2.0584370864227607E-022
  0.42200000000000010          4.4230261099280940E-023
  0.42500000000000010          3.8164384721819990E-022
  0.42800000000000010          7.5335599023560659E-022
  0.43100000000000011          1.0787661663415922E-021
  0.43400000000000000          1.2602097811543390E-021
  0.43700000000000000          1.2009554599406492E-021
  0.44000000000000000          8.2869294958837084E-022
  0.44300000000000000          1.2061737472924223E-022
  0.44600000000000001         -8.7524015354793488E-022
  0.44900000000000001         -2.0284043738213844E-021
  0.45200000000000001         -3.1295177527644626E-021
  0.45500000000000002         -3.9125392315679590E-021
  0.45800000000000002         -4.0959794232731246E-021
  0.46100000000000002         -3.4394418839468435E-021
  0.46400000000000002         -1.8076598651897593E-021
  0.46700000000000003          7.6949854162250191E-022
  0.47000000000000003          4.0545648664166644E-021
  0.47300000000000003          7.5907852666119571E-021
  0.47600000000000003          1.0731573256081638E-020
  0.47900000000000004          1.2715861742545305E-020
  0.48200000000000004          1.2786036456412601E-020
  0.48500000000000004          1.0336558793477857E-020
  0.48800000000000004          5.0725051550975641E-021
  0.49100000000000005         -2.8492227848356300E-021
  0.49400000000000005         -1.2726078737744977E-020
  0.49700000000000005         -2.3292058437864259E-020
  0.50000000000000000         -3.2796788526917356E-020
  0.50300000000000011         -3.9190600258624210E-020
  0.50600000000000001         -4.0408020169583774E-020
  0.50900000000000012         -3.4724129551382835E-020
  0.51200000000000001         -2.1140333936454280E-020
  0.51500000000000012          2.5711977836423990E-022
  0.51800000000000002          2.8031437874573570E-020
  0.52100000000000013          5.9285580930746472E-020
  0.52400000000000002          8.9761558906155484E-020
  0.52700000000000014          1.1418025323659215E-019
  0.53000000000000003          1.2682352699466967E-019
  0.53300000000000014          1.2232605988511759E-019
  0.53600000000000003          9.6601774660885746E-020
  0.53900000000000015          4.7801437861125064E-020
  0.54200000000000004         -2.2835139487374381E-020
  0.54500000000000015         -1.1037963958514059E-019
  0.54800000000000004         -2.0601362851600794E-019
  0.55100000000000016         -2.9734565235722123E-019
  0.55400000000000005         -3.6932332857094131E-019
  0.55700000000000016         -4.0575221502025824E-019
  0.56000000000000005         -3.9134900458626840E-019
  0.56299999999999994         -3.1417776998238590E-019
  0.56600000000000006         -1.6821038831946364E-019
  0.56899999999999995          4.4289209464080251E-020
  0.57200000000000006          3.1095513735868737E-019
  0.57499999999999996          6.0844285761114777E-019
  0.57800000000000007          9.0284233317836062E-019
  0.58099999999999996          1.1516443826698883E-018
  0.58400000000000007          1.3073723292266378E-018
  0.58699999999999997          1.3227747165285056E-018
  0.59000000000000008          1.1573153904881618E-018
  0.59299999999999997          7.8438119092680357E-019
  0.59600000000000009          1.9842519704351209E-019
  0.59899999999999998         -5.7888484653764357E-019
  0.60200000000000009         -1.4945703886469762E-018
  0.60500000000000020         -2.4633211935918160E-018
  0.60800000000000010         -3.3704579578094423E-018
  0.61100000000000021         -4.0793932676470325E-018
  0.61400000000000010         -4.4437414037192648E-018
  0.61700000000000021         -4.3236992261512514E-018
  0.62000000000000011         -3.6055380289911018E-018
  0.62300000000000022         -2.2225870605185700E-018
  0.62600000000000011         -1.7538084853076473E-019
  0.62900000000000000          2.4516413069460796E-018
  0.63200000000000012          5.4798154731370583E-018
  0.63500000000000001          8.6350162334186546E-018
  0.63800000000000012          1.1557736597389048E-017
  0.64100000000000001          1.3825894404482643E-017
  0.64400000000000013          1.4990532370952892E-017
  0.64700000000000002          1.4623256385727596E-017
  0.65000000000000013          1.2372286272894017E-017
  0.65300000000000002          8.0226506788478512E-018
  0.65600000000000014          1.5546769102340423E-018
  0.65900000000000003         -6.8066801238846062E-018
  0.66200000000000014         -1.6559182997406186E-017
  0.66500000000000004         -2.6914662785067751E-017
  0.66800000000000015         -3.6820868108416514E-017
  0.67100000000000004         -4.5018369926711925E-017
  0.67400000000000015         -5.0133425225062861E-017
  0.67700000000000005         -5.0805236127197198E-017
  0.68000000000000016         -4.5840867201516931E-017
  0.68300000000000005         -3.4386974627364614E-017
  0.68600000000000017         -1.6104228033261756E-017
  0.68900000000000006          8.6748116392284131E-018
  0.69200000000000017          3.8824724448334052E-017
  0.69500000000000006          7.2363071180268956E-017
  0.69800000000000018          1.0646355991982911E-016
  0.70100000000000007          1.3756174096253013E-016
  0.70400000000000018          1.6156293307487240E-016
  0.70700000000000007          1.7415116218892009E-016
  0.71000000000000019          1.7119079514194552E-016
  0.71300000000000008          1.4920250868032133E-016
  0.71600000000000019          1.0587181664873486E-016
  0.71900000000000008          4.0557461961558848E-017
  0.72200000000000020         -4.5261250347091604E-017
  0.72500000000000009         -1.4765080357293635E-016
  0.72800000000000020         -2.6006585505776331E-016
  0.73100000000000009         -3.7341528703724766E-016
  0.73400000000000021         -4.7639874579171485E-016
  0.73700000000000010         -5.5613465503958669E-016
  0.74000000000000021         -5.9908020604112682E-016
  0.74300000000000010         -5.9221597674041670E-016
  0.74600000000000022         -5.2444045074476162E-016
  0.74900000000000011         -3.8807506931095631E-016
  0.75200000000000022         -1.8036937410308073E-016
  0.75500000000000012          9.5142110955854013E-017
  0.75800000000000001          4.2759185127133324E-016
  0.76100000000000012          7.9820221017454477E-016
  0.76400000000000001          1.1803162225053308E-015
  0.76700000000000013          1.5401801204784087E-015
  0.77000000000000002          1.8385565117083519E-015
  0.77300000000000013          2.0331702180017856E-015
  0.77600000000000002          2.0819514233539131E-015
  0.77900000000000014          1.9469547819498288E-015
  0.78200000000000003          1.5986906124289323E-015
  0.78500000000000014          1.0206410506447232E-015
  0.78800000000000003          2.1352274578961603E-016
  0.79100000000000015         -8.0109748700992825E-016
  0.79400000000000004         -1.9782872056720521E-015
  0.79700000000000015         -3.2487793384333029E-015
  0.80000000000000004         -4.5199053070887843E-015
  0.80300000000000016         -5.6788069102969567E-015
  0.80600000000000005         -6.5980106201426749E-015
  0.80900000000000016         -7.1434457217837278E-015
  0.81200000000000006         -7.1845432121184749E-015
  0.81500000000000017         -6.6062505221375128E-015
  0.81800000000000006         -5.3220175368254881E-015
  0.82100000000000017         -3.2869983184554895E-015
  0.82400000000000007         -5.1048270527507744E-016
  0.82700000000000018          2.9337769918968005E-015
  0.83000000000000007          6.9004251552294237E-015
  0.83300000000000018          1.1169987417412068E-014
  0.83600000000000008          1.5451785841966350E-014
  0.83900000000000019          1.9393267080335817E-014
  0.84200000000000008          2.2596192820227281E-014
  0.84500000000000020          2.4639614884933965E-014
  0.84800000000000009          2.5109259501427271E-014
  0.85100000000000020          2.3631843086899626E-014
  0.85400000000000009          1.9912987693205890E-014
  0.85700000000000021          1.3776111541852175E-014
  0.86000000000000010          5.2000130658687466E-015
  0.86300000000000021         -5.6493988925557067E-015
  0.86600000000000010         -1.8394715033634809E-014
  0.86900000000000022         -3.2434963802922493E-014
  0.87200000000000011         -4.6947856827939540E-014
  0.87500000000000022         -6.0909640786648741E-014
  0.87800000000000011         -7.3133711840731508E-014
  0.88100000000000001         -8.2328381202052290E-014
  0.88400000000000012         -8.7173791582606900E-014
  0.88700000000000001         -8.6414600946927060E-014
  0.89000000000000012         -7.8965491041868459E-014
  0.89300000000000002         -6.4023615004107719E-014
  0.89600000000000013         -4.1180512317050856E-014
  0.89900000000000002         -1.0526736506594242E-014
  0.90200000000000014          2.7260864056035858E-014
  0.90500000000000003          7.0857782341582183E-014
  0.90800000000000014          1.1826537640166039E-013
  0.91100000000000003          1.6682721903235467E-013
  0.91400000000000015          2.1329457490884535E-013
  0.91700000000000004          2.5394423420768848E-013
  0.92000000000000015          2.8475219488197413E-013
  0.92300000000000004          3.0161368234688160E-013
  0.92600000000000016          3.0061282042301876E-013
  0.92900000000000005          2.7832624044080074E-013
  0.93200000000000016          2.3213994413375619E-013
  0.93500000000000005          1.6057295503634498E-013
  0.93800000000000017          6.3581135664246400E-014
  0.94100000000000006         -5.7185547638747775E-014
  0.94400000000000017         -1.9819150479483956E-013
  0.94700000000000006         -3.5391437829814970E-013
  0.95000000000000018         -5.1685170198128178E-013
  0.95300000000000007         -6.7766326725866488E-013
  0.95600000000000018         -8.2545362323503604E-013
  0.95900000000000007         -9.4818740438347920E-013
  0.96200000000000019         -1.0332583611922439E-012
  0.96500000000000008         -1.0681871585119540E-012
  0.96800000000000019         -1.0414154675751253E-012
  0.97100000000000009         -9.4316158690012088E-013
  0.97400000000000020         -7.6632883243403358E-013
  0.97700000000000009         -5.0738298999023987E-013
  0.98000000000000020         -1.6713824891906160E-013
  0.98300000000000010          2.4859245521866568E-013
  0.98600000000000021          7.2852230993064578E-013
  0.98900000000000010          1.2557056039178885E-012
  0.99200000000000021          1.8076418308864608E-012
  0.99500000000000011          2.3567370908398740E-012
  0.99800000000000022          2.8711197403560659E-012
   1.0010000000000001          3.3158586361892144E-012
   1.0040000000000002          3.6545679877729162E-012
   1.0070000000000001          3.8512853347436742E-012
   1.0100000000000000          3.8726877924423182E-012
   1.0130000000000001          3.6904980568454985E-012
   1.0160000000000000          3.2839649395355199E-012
   1.0190000000000001          2.6423282437515935E-012
   1.0220000000000000          1.7671252471494278E-012
   1.0250000000000001          6.7425900545709349E-013
   1.0280000000000000         -6.0448014800706730E-013
   1.0310000000000001         -2.0203785736074632E-012
   1.0340000000000000         -3.5075177169312828E-012
   1.0370000000000001         -4.9832621625336752E-012
   1.0400000000000000         -6.3496591117691489E-012
   1.0430000000000001         -7.4957423770160979E-012
   1.0460000000000000         -8.3007801467670108E-012
   1.0490000000000002         -8.6384076939622767E-012
   1.0520000000000000         -8.3815748100103093E-012
   1.0550000000000002         -7.4081452880848225E-012
   1.0580000000000001         -5.6070099788944309E-012
   1.0610000000000002         -2.8845062133730294E-012
   1.0640000000000001          8.2901627619309202E-013
   1.0670000000000002          5.5729044422353311E-012
   1.0700000000000001          1.1350241008901473E-011
   1.0730000000000002          1.8122411188037848E-011
   1.0760000000000001          2.5804873476876809E-011
   1.0790000000000002          3.4263418064465961E-011
   1.0820000000000001          4.3311988872971975E-011
   1.0850000000000002          5.2711137266396019E-011
   1.0880000000000001          6.2167971859006880E-011
   1.0910000000000002          7.1336912200267933E-011
   1.0940000000000001          7.9820749596119045E-011
   1.0970000000000002          8.7172145675609910E-011
