 -0.39999999999999997          0.0000000000000000     
 -0.39699999999999996          0.0000000000000000     
 -0.39399999999999996          0.0000000000000000     
 -0.39099999999999996          0.0000000000000000     
 -0.38799999999999996          0.0000000000000000     
 -0.38499999999999995          0.0000000000000000     
 -0.38199999999999995          0.0000000000000000     
 -0.37899999999999995          0.0000000000000000     
 -0.37599999999999995          0.0000000000000000     
 -0.37299999999999994          0.0000000000000000     
 -0.37000000000000000          0.0000000000000000     
 -0.36699999999999999          0.0000000000000000     
 -0.36399999999999999          0.0000000000000000     
 -0.36099999999999999          0.0000000000000000     
 -0.35799999999999998          0.0000000000000000     
 -0.35499999999999998          0.0000000000000000     
 -0.35199999999999998          0.0000000000000000     
 -0.34899999999999998          0.0000000000000000     
 -0.34599999999999997          0.0000000000000000     
 -0.34299999999999997          0.0000000000000000     
 -0.33999999999999997          0.0000000000000000     
 -0.33699999999999997          0.0000000000000000     
 -0.33399999999999996          0.0000000000000000     
 -0.33099999999999996          0.0000000000000000     
 -0.32799999999999996          0.0000000000000000     
 -0.32499999999999996          0.0000000000000000     
 -0.32199999999999995          0.0000000000000000     
 -0.31899999999999995          0.0000000000000000     
 -0.31599999999999995          0.0000000000000000     
 -0.31299999999999994          0.0000000000000000     
 -0.30999999999999994          0.0000000000000000     
 -0.30699999999999994          0.0000000000000000     
 -0.30399999999999994          0.0000000000000000     
 -0.30099999999999993          0.0000000000000000     
 -0.29799999999999993          0.0000000000000000     
 -0.29499999999999998          0.0000000000000000     
 -0.29199999999999998          0.0000000000000000     
 -0.28899999999999998          0.0000000000000000     
 -0.28599999999999998          0.0000000000000000     
 -0.28299999999999997          0.0000000000000000     
 -0.27999999999999997          0.0000000000000000     
 -0.27699999999999997          0.0000000000000000     
 -0.27399999999999997          0.0000000000000000     
 -0.27099999999999996          0.0000000000000000     
 -0.26799999999999996          0.0000000000000000     
 -0.26499999999999996          0.0000000000000000     
 -0.26199999999999996          0.0000000000000000     
 -0.25899999999999995          0.0000000000000000     
 -0.25599999999999995          0.0000000000000000     
 -0.25300000000000000          0.0000000000000000     
 -0.24999999999999997          0.0000000000000000     
 -0.24699999999999997          0.0000000000000000     
 -0.24399999999999997          0.0000000000000000     
 -0.24099999999999996          0.0000000000000000     
 -0.23799999999999996          0.0000000000000000     
 -0.23499999999999996          0.0000000000000000     
 -0.23199999999999996          0.0000000000000000     
 -0.22899999999999995          0.0000000000000000     
 -0.22599999999999995          0.0000000000000000     
 -0.22299999999999998          0.0000000000000000     
 -0.21999999999999997          0.0000000000000000     
 -0.21699999999999997          0.0000000000000000     
 -0.21399999999999997          0.0000000000000000     
 -0.21099999999999997          0.0000000000000000     
 -0.20799999999999996          0.0000000000000000     
 -0.20499999999999996          0.0000000000000000     
 -0.20199999999999996          0.0000000000000000     
 -0.19899999999999995          0.0000000000000000     
 -0.19599999999999995          0.0000000000000000     
 -0.19299999999999995          0.0000000000000000     
 -0.18999999999999997          0.0000000000000000     
 -0.18699999999999997          0.0000000000000000     
 -0.18399999999999997          0.0000000000000000     
 -0.18099999999999997          0.0000000000000000     
 -0.17799999999999996          0.0000000000000000     
 -0.17499999999999996          0.0000000000000000     
 -0.17199999999999996          0.0000000000000000     
 -0.16899999999999996          0.0000000000000000     
 -0.16599999999999995          0.0000000000000000     
 -0.16299999999999995          0.0000000000000000     
 -0.15999999999999998          0.0000000000000000     
 -0.15699999999999997          0.0000000000000000     
 -0.15399999999999997          0.0000000000000000     
 -0.15099999999999997          0.0000000000000000     
 -0.14799999999999996          0.0000000000000000     
 -0.14499999999999996          0.0000000000000000     
 -0.14199999999999996          0.0000000000000000     
 -0.13899999999999996          0.0000000000000000     
 -0.13599999999999995          0.0000000000000000     
 -0.13299999999999995          0.0000000000000000     
 -0.12999999999999995          0.0000000000000000     
 -0.12699999999999995          0.0000000000000000     
 -0.12399999999999994          0.0000000000000000     
 -0.12099999999999994          0.0000000000000000     
 -0.11799999999999994          0.0000000000000000     
 -0.11499999999999994         -8.6671439566542501E-042
 -0.11199999999999993         -7.2230136772397543E-042
 -0.10899999999999999          1.9346497706410345E-041
 -0.10599999999999998          1.5528558999492419E-041
 -0.10299999999999998         -8.8347306852135815E-040
  -9.9999999999999978E-002    -1.3863951797883075E-039
  -9.6999999999999975E-002     7.8527813260799859E-041
  -9.3999999999999972E-002     4.4783522742753050E-039
  -9.0999999999999970E-002     4.4798111761499387E-039
  -8.7999999999999967E-002    -9.4887395713872121E-039
  -8.4999999999999964E-002    -2.2736960044394285E-038
  -8.1999999999999962E-002    -6.0329770374173437E-039
  -7.8999999999999959E-002     5.4604102989242628E-038
  -7.5999999999999956E-002     9.5206147503968797E-038
  -7.2999999999999954E-002    -2.7435178643103204E-038
  -6.9999999999999951E-002    -3.0005460266631691E-037
  -6.6999999999999948E-002    -3.5619860225669880E-037
  -6.3999999999999946E-002     2.9341426901335552E-037
  -6.0999999999999943E-002     1.3916282066622024E-036
  -5.7999999999999940E-002     1.2834969693870984E-036
  -5.4999999999999938E-002    -1.7971451601417732E-036
  -5.1999999999999935E-002    -6.1376810224901764E-036
  -4.8999999999999932E-002    -4.5617903092786421E-036
  -4.5999999999999985E-002     9.2524106240472081E-036
  -4.2999999999999983E-002     2.6224449616402452E-035
  -3.9999999999999980E-002     1.6322238869348828E-035
  -3.6999999999999977E-002    -4.2882090108513179E-035
  -3.3999999999999975E-002    -1.0930088427093243E-034
  -3.0999999999999972E-002    -6.1357585109857887E-035
  -2.7999999999999969E-002     1.8335042388688546E-034
  -2.4999999999999967E-002     4.4812550134163754E-034
  -2.1999999999999964E-002     2.4988777937115127E-034
  -1.8999999999999961E-002    -7.3238560670879116E-034
  -1.5999999999999959E-002    -1.8098208785931709E-033
  -1.2999999999999956E-002    -1.0971105136798173E-033
  -9.9999999999999534E-003     2.7248775310225093E-033
  -6.9999999999999507E-003     7.1725446675673508E-033
  -3.9999999999999480E-003     5.0469294504582114E-033
  -9.9999999999994538E-004    -9.2935435514019375E-033
   2.0000000000000573E-003    -2.7705556821882516E-032
   5.0000000000000600E-003    -2.3421796555319917E-032
   8.0000000000000626E-003     2.7968349742771278E-032
   1.1000000000000065E-002     1.0316219052061616E-031
   1.4000000000000068E-002     1.0625844364034597E-031
   1.7000000000000015E-002    -6.6702837255354867E-032
   2.0000000000000018E-002    -3.6461150087691824E-031
   2.3000000000000020E-002    -4.6123229764932438E-031
   2.6000000000000023E-002     7.0355812537456791E-032
   2.9000000000000026E-002     1.1964286774283481E-030
   3.2000000000000028E-002     1.8852941032101764E-030
   3.5000000000000031E-002     4.7484237322052687E-031
   3.8000000000000034E-002    -3.5127049114678794E-030
   4.1000000000000036E-002    -7.1513688661790377E-030
   4.4000000000000039E-002    -4.4011105531448325E-030
   4.7000000000000042E-002     8.5227637106669588E-030
   5.0000000000000044E-002     2.4728344562794610E-029
   5.3000000000000047E-002     2.4093598409141495E-029
   5.6000000000000050E-002    -1.2839536254811212E-029
   5.9000000000000052E-002    -7.5778252676583743E-029
   6.2000000000000055E-002    -1.0490687475727483E-028
   6.5000000000000058E-002    -1.9044952132965279E-029
   6.8000000000000060E-002     1.9443155273097350E-028
   7.1000000000000063E-002     3.8487500836959083E-028
   7.4000000000000066E-002     2.6391877865014189E-028
   7.7000000000000068E-002    -3.5381032444624894E-028
   8.0000000000000016E-002    -1.1893112493934744E-027
   8.3000000000000018E-002    -1.3707378091219303E-027
   8.6000000000000021E-002     5.0788940666047881E-029
   8.9000000000000024E-002     2.9491607530795090E-027
   9.2000000000000026E-002     5.1695973907364993E-027
   9.5000000000000029E-002     3.1842931624900161E-027
   9.8000000000000032E-002    -4.8714785844319795E-027
  0.10100000000000003         -1.5223977395775686E-026
  0.10400000000000004         -1.7518990716740118E-026
  0.10700000000000004         -9.4818131522751749E-028
  0.11000000000000004          3.3252640855969180E-026
  0.11300000000000004          6.1830076274956166E-026
  0.11600000000000005          4.6059622319299941E-026
  0.11900000000000005         -3.7840416721877850E-026
  0.12200000000000005         -1.5795110308504172E-025
  0.12500000000000006         -2.1253177249039255E-025
  0.12800000000000006         -8.1388203827878182E-026
  0.13100000000000006          2.5800969729381775E-025
  0.13400000000000006          6.2173974596342214E-025
  0.13700000000000007          6.4123972783345716E-025
  0.14000000000000007         -6.0458731861864915E-028
  0.14300000000000007         -1.1943887899037839E-024
  0.14600000000000007         -2.1690194933555741E-024
  0.14900000000000008         -1.7471202671373511E-024
  0.15200000000000008          7.8855924173542272E-025
  0.15500000000000008          4.6183052290244966E-024
  0.15800000000000008          7.0019797935620046E-024
  0.16100000000000009          4.4743089347063037E-024
  0.16400000000000009         -4.3778207628899420E-024
  0.16700000000000009         -1.6047257755815407E-023
  0.17000000000000010         -2.1754747889702118E-023
  0.17300000000000010         -1.1686149001481256E-023
  0.17600000000000010          1.6863763049238908E-023
  0.17899999999999999          5.2038058895579990E-023
  0.18200000000000000          6.7610498819325827E-023
  0.18500000000000000          3.5634622062634964E-023
  0.18800000000000000         -5.1112063950532313E-023
  0.19100000000000000         -1.5921594519167760E-022
  0.19400000000000001         -2.1484385603471356E-022
  0.19700000000000001         -1.3605135281372089E-022
  0.20000000000000001          1.0875872790339559E-022
  0.20300000000000001          4.4505319054295624E-022
  0.20600000000000002          6.8146276023242391E-022
  0.20900000000000002          5.7669747450167070E-022
  0.21200000000000002         -2.0505943710819713E-023
  0.21500000000000002         -1.0145210680753574E-021
  0.21800000000000003         -1.9834671995576885E-021
  0.22100000000000003         -2.2674001576023296E-021
  0.22400000000000003         -1.2524020118693099E-021
  0.22700000000000004          1.2255316767720012E-021
  0.23000000000000004          4.5368030738850556E-021
  0.23300000000000004          7.2000137030054795E-021
  0.23600000000000004          7.2755532432134795E-021
  0.23900000000000005          3.2060784415306654E-021
  0.24200000000000005         -5.1380737346071607E-021
  0.24500000000000005         -1.5660473988029635E-020
  0.24800000000000005         -2.4007160997284222E-020
  0.25100000000000006         -2.4662301452745268E-020
  0.25400000000000006         -1.3129686114620173E-020
  0.25700000000000006          1.1382146532059509E-020
  0.26000000000000006          4.3834295399177624E-020
  0.26300000000000007          7.3017943969417996E-020
  0.26600000000000007          8.3888430293030402E-020
  0.26900000000000007          6.2586384018525323E-020
  0.27200000000000008          2.9808774616162474E-021
  0.27500000000000008         -8.7497510495442630E-020
  0.27800000000000008         -1.8541346336105447E-019
  0.28100000000000008         -2.5443184375873778E-019
  0.28400000000000009         -2.5459007612677405E-019
  0.28700000000000009         -1.5618394166304758E-019
  0.29000000000000009          4.5429672163917945E-020
  0.29300000000000009          3.1914623799267387E-019
  0.29600000000000010          5.9647477001323088E-019
  0.29900000000000010          7.8213651918126053E-019
  0.30200000000000010          7.7690913981088493E-019
  0.30499999999999999          5.0884979281193673E-019
  0.30800000000000000         -3.4611049339830871E-020
  0.31100000000000000         -7.8337104839152073E-019
  0.31400000000000000         -1.5797012218326488E-018
  0.31700000000000000         -2.1981299380150085E-018
  0.32000000000000001         -2.3909762352858966E-018
  0.32300000000000001         -1.9531667526246822E-018
  0.32600000000000001         -7.9291786562197223E-019
  0.32900000000000001          1.0098126338921372E-018
  0.33200000000000002          3.1758811763207155E-018
  0.33500000000000002          5.2450295889699589E-018
  0.33800000000000002          6.6451133392234427E-018
  0.34100000000000003          6.8064411691421884E-018
  0.34400000000000003          5.3028396044114138E-018
  0.34700000000000003          1.9914624034963994E-018
  0.35000000000000003         -2.8816402171805477E-018
  0.35300000000000004         -8.6408831979594802E-018
  0.35600000000000004         -1.4227211157827876E-017
  0.35900000000000004         -1.8337353184699818E-017
  0.36200000000000004         -1.9644319739027928E-017
  0.36500000000000005         -1.7068790417704217E-017
  0.36800000000000005         -1.0056766838825990E-017
  0.37100000000000005          1.1890394484399869E-018
  0.37400000000000005          1.5574851747602462E-017
  0.37700000000000006          3.1120075599295583E-017
  0.38000000000000006          4.5122633230467789E-017
  0.38300000000000006          5.4486507968274242E-017
  0.38600000000000007          5.6183517420776490E-017
  0.38900000000000007          4.7799912849438355E-017
  0.39200000000000007          2.8094245425276366E-017
  0.39500000000000007         -2.5185486331553570E-018
  0.39800000000000008         -4.1645946430048441E-017
  0.40100000000000008         -8.4840203377759713E-017
  0.40400000000000008         -1.2582612528823550E-016
  0.40700000000000008         -1.5706331099530699E-016
  0.41000000000000009         -1.7063313787156963E-016
  0.41300000000000009         -1.5939208734893795E-016
  0.41600000000000009         -1.1828359490957092E-016
  0.41900000000000009         -4.5650683545788785E-017
  0.42200000000000010          5.5640538452700183E-017
  0.42500000000000010          1.7748269958036000E-016
  0.42800000000000010          3.0641629449079949E-016
  0.43100000000000011          4.2429176193120483E-016
  0.43400000000000000          5.0979779036029518E-016
  0.43700000000000000          5.4084236944960770E-016
  0.44000000000000000          4.9764233267398831E-016
  0.44300000000000000          3.6623527029364704E-016
  0.44600000000000001          1.4201040127067658E-016
  0.44900000000000001         -1.6725948724558188E-016
  0.45200000000000001         -5.3943417983464549E-016
  0.45500000000000002         -9.3758760756187426E-016
  0.45800000000000002         -1.3115767895929360E-015
  0.46100000000000002         -1.6018219124022770E-015
  0.46400000000000002         -1.7452432820975012E-015
  0.46700000000000003         -1.6830566124018464E-015
  0.47000000000000003         -1.3697717989876539E-015
  0.47300000000000003         -7.8243627838571442E-016
  0.47600000000000003          7.0999385401702056E-017
  0.47900000000000004          1.1454756536565320E-015
  0.48200000000000004          2.3560009401950430E-015
  0.48500000000000004          3.5793084269595728E-015
  0.48800000000000004          4.6606362492057447E-015
  0.49100000000000005          5.4258531073107738E-015
  0.49400000000000005          5.6985639568672031E-015
  0.49700000000000005          5.3211944201714124E-015
  0.50000000000000000          4.1782798026041779E-015
  0.50300000000000011          2.2197726355839950E-015
  0.50600000000000001         -5.1832961626780119E-016
  0.50900000000000012         -3.8988645909229014E-015
  0.51200000000000001         -7.6769087745821252E-015
  0.51500000000000012         -1.1503893054362795E-014
  0.51800000000000002         -1.4944408759866804E-014
  0.52100000000000013         -1.7506148652018162E-014
  0.52400000000000002         -1.8682497961069595E-014
  0.52700000000000014         -1.8005903615505386E-014
  0.53000000000000003         -1.5107784636574563E-014
  0.53300000000000014         -9.7807029504983298E-015
  0.53600000000000003         -2.0360320097540802E-015
  0.53900000000000015          7.8497098803521044E-015
  0.54200000000000004          1.9306797807516539E-014
  0.54500000000000015          3.1469085975912824E-014
  0.54800000000000004          4.3201439623749719E-014
  0.55100000000000016          5.3159946799241274E-014
  0.55400000000000005          5.9886416146656739E-014
  0.55700000000000016          6.1932719356009939E-014
  0.56000000000000005          5.8010919927877548E-014
  0.56299999999999994          4.7155350378278231E-014
  0.56600000000000006          2.8886392963629691E-014
  0.56899999999999995          3.3593439918936866E-015
  0.57200000000000006         -2.8520585920127060E-014
  0.57499999999999996         -6.5031306075884765E-014
  0.57800000000000007         -1.0363346634819023E-013
  0.58099999999999996         -1.4104541750046732E-013
  0.58400000000000007         -1.7340401832530581E-013
  0.58699999999999997         -1.9650916707512166E-013
  0.59000000000000008         -2.0614651202241774E-013
  0.59299999999999997         -1.9847292001112563E-013
  0.59600000000000009         -1.7043943806247475E-013
  0.59899999999999998         -1.2022463840572389E-013
  0.60200000000000009         -4.7638708013023215E-014
  0.60500000000000020          4.5541219063188733E-014
  0.60800000000000010          1.5534568648397101E-013
  0.61100000000000021          2.7553391330678526E-013
  0.61400000000000010          3.9769828860138254E-013
  0.61700000000000021          5.1157236057734888E-013
  0.62000000000000011          6.0554619850760998E-013
  0.62300000000000022          6.6739575026591891E-013
  0.62600000000000011          6.8518843568202154E-013
  0.62900000000000000          6.4832750429961384E-013
  0.63200000000000012          5.4867480008821577E-013
  0.63500000000000001          3.8167186066549818E-013
  0.63800000000000012          1.4736954268485244E-013
  0.64100000000000001         -1.4872631328897612E-013
  0.64400000000000013         -4.9509705389083979E-013
  0.64700000000000002         -8.7401814979586904E-013
  0.65000000000000013         -1.2618222755639706E-012
  0.65300000000000002         -1.6296607474754338E-012
  0.65600000000000014         -1.9447813729566156E-012
  0.65900000000000003         -2.1723155903667342E-012
  0.66200000000000014         -2.2775215044084258E-012
  0.66500000000000004         -2.2283919060549042E-012
  0.66800000000000015         -1.9984548258619078E-012
  0.67100000000000004         -1.5696724340535369E-012
  0.67400000000000015         -9.3514859771147287E-013
  0.67700000000000005         -1.0149471507596816E-013
  0.68000000000000016          9.0939803249634310E-013
  0.68300000000000005          2.0593906238804851E-012
  0.68600000000000017          3.2940816000015386E-012
  0.68900000000000006          4.5440041103131643E-012
  0.69200000000000017          5.7269266322378810E-012
  0.69500000000000006          6.7515042274364791E-012
  0.69800000000000018          7.5219960623287528E-012
  0.70100000000000007          7.9441347861764544E-012
  0.70400000000000018          7.9316741135318402E-012
  0.70700000000000007          7.4135045276574095E-012
  0.71000000000000019          6.3408413315271492E-012
  0.71300000000000008          4.6940530267400034E-012
  0.71600000000000019          2.4887342772630737E-012
  0.71900000000000008         -2.1956620260391960E-013
  0.72200000000000020         -3.3323235218161125E-012
  0.72500000000000009         -6.7071080453274907E-012
  0.72800000000000020         -1.0159311126409898E-011
  0.73100000000000009         -1.3466422818040831E-011
  0.73400000000000021         -1.6375083688105093E-011
  0.73700000000000010         -1.8610960008308272E-011
  0.74000000000000021         -1.9891400099958252E-011
  0.74300000000000010         -1.9939442073191347E-011
  0.74600000000000022         -1.8500492440349919E-011
  0.74900000000000011         -1.5359301022799311E-011
  0.75200000000000022         -1.0357904066480695E-011
  0.75500000000000012         -3.4120406067635356E-012
  0.75800000000000001          5.4725867514148831E-012
  0.76100000000000012          1.6186609434961808E-011
  0.76400000000000001          2.8506799827214469E-011
  0.76700000000000013          4.2087500056733550E-011
  0.77000000000000002          5.6457276094516257E-011
  0.77300000000000013          7.1017912375903351E-011
  0.77600000000000002          8.5049080253546773E-011
  0.77900000000000014          9.7713314844736505E-011
  0.78200000000000003          1.0806558627404317E-010
  0.78500000000000014          1.1506540981533955E-010
  0.78800000000000003          1.1758500360341729E-010
  0.79100000000000015          1.1441945937767284E-010
  0.79400000000000004          1.0429250423140694E-010
  0.79700000000000015          8.5855259380632107E-011
  0.80000000000000004          5.7684471242319669E-011
  0.80300000000000016          1.8263904864931457E-011
  0.80600000000000005         -3.4042648023614297E-011
  0.80900000000000016         -1.0102481838297698E-010
  0.81200000000000006         -1.8469274732868800E-010
  0.81500000000000017         -2.8733934182239378E-010
  0.81800000000000006         -4.1162203658637601E-010
  0.82100000000000017         -5.6068011964358678E-010
  0.82400000000000007         -7.3826916094059509E-010
  0.82700000000000018         -9.4887631478770840E-010
  0.83000000000000007         -1.1979307045445485E-009
  0.83300000000000018         -1.4919645335291475E-009
  0.83600000000000008         -1.8388467966146805E-009
  0.83900000000000019         -2.2479772424330765E-009
  0.84200000000000008         -2.7305801123473907E-009
  0.84500000000000020         -3.3000293119141694E-009
  0.84800000000000009         -3.9720771660524859E-009
  0.85100000000000020         -4.7651732898160921E-009
  0.85400000000000009         -5.7010174676083788E-009
  0.85700000000000021         -6.8047992262224816E-009
  0.86000000000000010         -8.1055171618846373E-009
  0.86300000000000021         -9.6368731876108443E-009
  0.86600000000000010         -1.1437295322358115E-008
  0.86900000000000022         -1.3550976122249779E-008
  0.87200000000000011         -1.6028291633793412E-008
  0.87500000000000022         -1.8926326096455574E-008
  0.87800000000000011         -2.2309769458253902E-008
  0.88100000000000001         -2.6251863555774036E-008
  0.88400000000000012         -3.0835198394415434E-008
  0.88700000000000001         -3.6152514998894755E-008
  0.89000000000000012         -4.2307684885675109E-008
  0.89300000000000002         -4.9417429179011155E-008
  0.89600000000000013         -5.7611136943713350E-008
  0.89900000000000002         -6.7033891092924747E-008
  0.90200000000000014         -7.7845978290535868E-008
  0.90500000000000003         -9.0224401304540452E-008
  0.90800000000000014         -1.0436618068818030E-007
  0.91100000000000003         -1.2048714234819295E-007
  0.91400000000000015         -1.3882517811798524E-007
  0.91700000000000004         -1.5963802683823646E-007
  0.92000000000000015         -1.8321047297333610E-007
  0.92300000000000004         -2.0984749008648891E-007
  0.92600000000000016         -2.3988436343039793E-007
  0.92900000000000005         -2.7367794142066382E-007
  0.93200000000000016         -3.1161593869246623E-007
  0.93500000000000005         -3.5411209524836257E-007
  0.93800000000000017         -4.0160202155395899E-007
  0.94100000000000006         -4.5455341490745117E-007
  0.94400000000000017         -5.1345986139044303E-007
  0.94700000000000006         -5.7883098733406591E-007
  0.95000000000000018         -6.5120576132964907E-007
  0.95300000000000007         -7.3114837663217702E-007
  0.95600000000000018         -8.1922603859889246E-007
  0.95900000000000007         -9.1602331294267669E-007
  0.96200000000000019         -1.0221390198732479E-006
  0.96500000000000008         -1.1381593998194969E-006
  0.96800000000000019         -1.2646783386723607E-006
  0.97100000000000009         -1.4022811242956262E-006
  0.97400000000000020         -1.5515230688370353E-006
  0.97700000000000009         -1.7129465557369529E-006
  0.98000000000000020         -1.8870220072245364E-006
  0.98300000000000010         -2.0742011942997076E-006
  0.98600000000000021         -2.2748627545950845E-006
  0.98900000000000010         -2.4892970488450843E-006
  0.99200000000000021         -2.7177333431423987E-006
  0.99500000000000011         -2.9602729619764773E-006
  0.99800000000000022         -3.2168892104264604E-006
   1.0010000000000001         -3.4874740867950153E-006
   1.0040000000000002         -3.7717131586500464E-006
   1.0070000000000001         -4.0691105390032500E-006
   1.0100000000000000         -4.3790817252480407E-006
   1.0130000000000001         -4.7007410596393766E-006
   1.0160000000000000         -5.0330627140170417E-006
   1.0190000000000001         -5.3747507712457039E-006
   1.0220000000000000         -5.7243036817601296E-006
   1.0250000000000001         -6.0799023224322779E-006
   1.0280000000000000         -6.4395759818332536E-006
   1.0310000000000001         -6.8009938737738272E-006
   1.0340000000000000         -7.1615905599503290E-006
   1.0370000000000001         -7.5185897416214700E-006
   1.0400000000000000         -7.8688241035784420E-006
   1.0430000000000001         -8.2089808662253272E-006
   1.0460000000000000         -8.5353650827853823E-006
   1.0490000000000002         -8.8442421581722600E-006
   1.0520000000000000         -9.1314556788156979E-006
   1.0550000000000002         -9.3927230727092356E-006
   1.0580000000000001         -9.6236212401496068E-006
   1.0610000000000002         -9.8196476898619285E-006
   1.0640000000000001         -9.9760877482406760E-006
   1.0670000000000002         -1.0088272668437466E-005
   1.0700000000000001         -1.0151401735431786E-005
   1.0730000000000002         -1.0160858854725444E-005
   1.0760000000000001         -1.0112050778559848E-005
   1.0790000000000002         -1.0000546047378442E-005
   1.0820000000000001         -9.8221348491070972E-006
   1.0850000000000002         -9.5728895463595386E-006
   1.0880000000000001         -9.2492885166528133E-006
   1.0910000000000002         -8.8482816852943448E-006
   1.0940000000000001         -8.3670465028837205E-006
   1.0970000000000002         -7.8034471129151864E-006
