 -0.39999999999999997          0.0000000000000000     
 -0.39699999999999996          0.0000000000000000     
 -0.39399999999999996          0.0000000000000000     
 -0.39099999999999996          0.0000000000000000     
 -0.38799999999999996          0.0000000000000000     
 -0.38499999999999995          0.0000000000000000     
 -0.38199999999999995          0.0000000000000000     
 -0.37899999999999995          0.0000000000000000     
 -0.37599999999999995          0.0000000000000000     
 -0.37299999999999994          0.0000000000000000     
 -0.37000000000000000          0.0000000000000000     
 -0.36699999999999999          0.0000000000000000     
 -0.36399999999999999          0.0000000000000000     
 -0.36099999999999999          0.0000000000000000     
 -0.35799999999999998          0.0000000000000000     
 -0.35499999999999998          0.0000000000000000     
 -0.35199999999999998          0.0000000000000000     
 -0.34899999999999998          0.0000000000000000     
 -0.34599999999999997          0.0000000000000000     
 -0.34299999999999997          0.0000000000000000     
 -0.33999999999999997          0.0000000000000000     
 -0.33699999999999997          0.0000000000000000     
 -0.33399999999999996          0.0000000000000000     
 -0.33099999999999996          0.0000000000000000     
 -0.32799999999999996          0.0000000000000000     
 -0.32499999999999996          0.0000000000000000     
 -0.32199999999999995          0.0000000000000000     
 -0.31899999999999995          0.0000000000000000     
 -0.31599999999999995          0.0000000000000000     
 -0.31299999999999994          0.0000000000000000     
 -0.30999999999999994          0.0000000000000000     
 -0.30699999999999994          0.0000000000000000     
 -0.30399999999999994          0.0000000000000000     
 -0.30099999999999993          0.0000000000000000     
 -0.29799999999999993          0.0000000000000000     
 -0.29499999999999998          0.0000000000000000     
 -0.29199999999999998          0.0000000000000000     
 -0.28899999999999998          0.0000000000000000     
 -0.28599999999999998          0.0000000000000000     
 -0.28299999999999997          0.0000000000000000     
 -0.27999999999999997          0.0000000000000000     
 -0.27699999999999997          0.0000000000000000     
 -0.27399999999999997          0.0000000000000000     
 -0.27099999999999996          0.0000000000000000     
 -0.26799999999999996          0.0000000000000000     
 -0.26499999999999996          0.0000000000000000     
 -0.26199999999999996          0.0000000000000000     
 -0.25899999999999995          0.0000000000000000     
 -0.25599999999999995          0.0000000000000000     
 -0.25300000000000000          0.0000000000000000     
 -0.24999999999999997          0.0000000000000000     
 -0.24699999999999997          0.0000000000000000     
 -0.24399999999999997          0.0000000000000000     
 -0.24099999999999996          0.0000000000000000     
 -0.23799999999999996          0.0000000000000000     
 -0.23499999999999996          0.0000000000000000     
 -0.23199999999999996          0.0000000000000000     
 -0.22899999999999995          0.0000000000000000     
 -0.22599999999999995          0.0000000000000000     
 -0.22299999999999998          0.0000000000000000     
 -0.21999999999999997          0.0000000000000000     
 -0.21699999999999997          0.0000000000000000     
 -0.21399999999999997          0.0000000000000000     
 -0.21099999999999997          0.0000000000000000     
 -0.20799999999999996          0.0000000000000000     
 -0.20499999999999996          0.0000000000000000     
 -0.20199999999999996          0.0000000000000000     
 -0.19899999999999995          0.0000000000000000     
 -0.19599999999999995          0.0000000000000000     
 -0.19299999999999995          0.0000000000000000     
 -0.18999999999999997          0.0000000000000000     
 -0.18699999999999997          0.0000000000000000     
 -0.18399999999999997          0.0000000000000000     
 -0.18099999999999997          0.0000000000000000     
 -0.17799999999999996          0.0000000000000000     
 -0.17499999999999996          0.0000000000000000     
 -0.17199999999999996          0.0000000000000000     
 -0.16899999999999996          0.0000000000000000     
 -0.16599999999999995          0.0000000000000000     
 -0.16299999999999995          0.0000000000000000     
 -0.15999999999999998          0.0000000000000000     
 -0.15699999999999997          0.0000000000000000     
 -0.15399999999999997          0.0000000000000000     
 -0.15099999999999997          0.0000000000000000     
 -0.14799999999999996          0.0000000000000000     
 -0.14499999999999996          0.0000000000000000     
 -0.14199999999999996          0.0000000000000000     
 -0.13899999999999996          0.0000000000000000     
 -0.13599999999999995          0.0000000000000000     
 -0.13299999999999995          0.0000000000000000     
 -0.12999999999999995          0.0000000000000000     
 -0.12699999999999995          0.0000000000000000     
 -0.12399999999999994          0.0000000000000000     
 -0.12099999999999994          0.0000000000000000     
 -0.11799999999999994          0.0000000000000000     
 -0.11499999999999994          0.0000000000000000     
 -0.11199999999999993          0.0000000000000000     
 -0.10899999999999999          0.0000000000000000     
 -0.10599999999999998          0.0000000000000000     
 -0.10299999999999998          0.0000000000000000     
  -9.9999999999999978E-002     0.0000000000000000     
  -9.6999999999999975E-002     0.0000000000000000     
  -9.3999999999999972E-002     0.0000000000000000     
  -9.0999999999999970E-002     0.0000000000000000     
  -8.7999999999999967E-002     0.0000000000000000     
  -8.4999999999999964E-002     0.0000000000000000     
  -8.1999999999999962E-002     0.0000000000000000     
  -7.8999999999999959E-002     0.0000000000000000     
  -7.5999999999999956E-002     0.0000000000000000     
  -7.2999999999999954E-002     0.0000000000000000     
  -6.9999999999999951E-002     0.0000000000000000     
  -6.6999999999999948E-002     0.0000000000000000     
  -6.3999999999999946E-002     0.0000000000000000     
  -6.0999999999999943E-002     0.0000000000000000     
  -5.7999999999999940E-002     0.0000000000000000     
  -5.4999999999999938E-002     0.0000000000000000     
  -5.1999999999999935E-002     0.0000000000000000     
  -4.8999999999999932E-002     0.0000000000000000     
  -4.5999999999999985E-002     0.0000000000000000     
  -4.2999999999999983E-002     0.0000000000000000     
  -3.9999999999999980E-002     0.0000000000000000     
  -3.6999999999999977E-002     0.0000000000000000     
  -3.3999999999999975E-002     0.0000000000000000     
  -3.0999999999999972E-002     0.0000000000000000     
  -2.7999999999999969E-002     0.0000000000000000     
  -2.4999999999999967E-002     0.0000000000000000     
  -2.1999999999999964E-002     0.0000000000000000     
  -1.8999999999999961E-002     0.0000000000000000     
  -1.5999999999999959E-002     0.0000000000000000     
  -1.2999999999999956E-002     0.0000000000000000     
  -9.9999999999999534E-003     0.0000000000000000     
  -6.9999999999999507E-003     0.0000000000000000     
  -3.9999999999999480E-003     0.0000000000000000     
  -9.9999999999994538E-004     0.0000000000000000     
   2.0000000000000573E-003     0.0000000000000000     
   5.0000000000000600E-003     0.0000000000000000     
   8.0000000000000626E-003     0.0000000000000000     
   1.1000000000000065E-002     0.0000000000000000     
   1.4000000000000068E-002     0.0000000000000000     
   1.7000000000000015E-002     0.0000000000000000     
   2.0000000000000018E-002     0.0000000000000000     
   2.3000000000000020E-002     0.0000000000000000     
   2.6000000000000023E-002     0.0000000000000000     
   2.9000000000000026E-002     0.0000000000000000     
   3.2000000000000028E-002     0.0000000000000000     
   3.5000000000000031E-002     0.0000000000000000     
   3.8000000000000034E-002     0.0000000000000000     
   4.1000000000000036E-002     0.0000000000000000     
   4.4000000000000039E-002     0.0000000000000000     
   4.7000000000000042E-002     0.0000000000000000     
   5.0000000000000044E-002     0.0000000000000000     
   5.3000000000000047E-002     0.0000000000000000     
   5.6000000000000050E-002     0.0000000000000000     
   5.9000000000000052E-002     0.0000000000000000     
   6.2000000000000055E-002     0.0000000000000000     
   6.5000000000000058E-002     0.0000000000000000     
   6.8000000000000060E-002     0.0000000000000000     
   7.1000000000000063E-002     0.0000000000000000     
   7.4000000000000066E-002     0.0000000000000000     
   7.7000000000000068E-002     0.0000000000000000     
   8.0000000000000016E-002     0.0000000000000000     
   8.3000000000000018E-002     0.0000000000000000     
   8.6000000000000021E-002     0.0000000000000000     
   8.9000000000000024E-002     0.0000000000000000     
   9.2000000000000026E-002     0.0000000000000000     
   9.5000000000000029E-002     0.0000000000000000     
   9.8000000000000032E-002     0.0000000000000000     
  0.10100000000000003          0.0000000000000000     
  0.10400000000000004          0.0000000000000000     
  0.10700000000000004          0.0000000000000000     
  0.11000000000000004          0.0000000000000000     
  0.11300000000000004          0.0000000000000000     
  0.11600000000000005          0.0000000000000000     
  0.11900000000000005          0.0000000000000000     
  0.12200000000000005          0.0000000000000000     
  0.12500000000000006          0.0000000000000000     
  0.12800000000000006          0.0000000000000000     
  0.13100000000000006          0.0000000000000000     
  0.13400000000000006          0.0000000000000000     
  0.13700000000000007          0.0000000000000000     
  0.14000000000000007          0.0000000000000000     
  0.14300000000000007          0.0000000000000000     
  0.14600000000000007          0.0000000000000000     
  0.14900000000000008          0.0000000000000000     
  0.15200000000000008          0.0000000000000000     
  0.15500000000000008          0.0000000000000000     
  0.15800000000000008          0.0000000000000000     
  0.16100000000000009          0.0000000000000000     
  0.16400000000000009          0.0000000000000000     
  0.16700000000000009          0.0000000000000000     
  0.17000000000000010          0.0000000000000000     
  0.17300000000000010          0.0000000000000000     
  0.17600000000000010          0.0000000000000000     
  0.17899999999999999          0.0000000000000000     
  0.18200000000000000          0.0000000000000000     
  0.18500000000000000          0.0000000000000000     
  0.18800000000000000          0.0000000000000000     
  0.19100000000000000          0.0000000000000000     
  0.19400000000000001          0.0000000000000000     
  0.19700000000000001          0.0000000000000000     
  0.20000000000000001          0.0000000000000000     
  0.20300000000000001          0.0000000000000000     
  0.20600000000000002          0.0000000000000000     
  0.20900000000000002          0.0000000000000000     
  0.21200000000000002          0.0000000000000000     
  0.21500000000000002          0.0000000000000000     
  0.21800000000000003          0.0000000000000000     
  0.22100000000000003          0.0000000000000000     
  0.22400000000000003          0.0000000000000000     
  0.22700000000000004          0.0000000000000000     
  0.23000000000000004          0.0000000000000000     
  0.23300000000000004          0.0000000000000000     
  0.23600000000000004          0.0000000000000000     
  0.23900000000000005          0.0000000000000000     
  0.24200000000000005          0.0000000000000000     
  0.24500000000000005          0.0000000000000000     
  0.24800000000000005          0.0000000000000000     
  0.25100000000000006          0.0000000000000000     
  0.25400000000000006          0.0000000000000000     
  0.25700000000000006          0.0000000000000000     
  0.26000000000000006          0.0000000000000000     
  0.26300000000000007          0.0000000000000000     
  0.26600000000000007          0.0000000000000000     
  0.26900000000000007          0.0000000000000000     
  0.27200000000000008          0.0000000000000000     
  0.27500000000000008          0.0000000000000000     
  0.27800000000000008          0.0000000000000000     
  0.28100000000000008          0.0000000000000000     
  0.28400000000000009          0.0000000000000000     
  0.28700000000000009          0.0000000000000000     
  0.29000000000000009          0.0000000000000000     
  0.29300000000000009          0.0000000000000000     
  0.29600000000000010          0.0000000000000000     
  0.29900000000000010          0.0000000000000000     
  0.30200000000000010          0.0000000000000000     
  0.30499999999999999          0.0000000000000000     
  0.30800000000000000          0.0000000000000000     
  0.31100000000000000          0.0000000000000000     
  0.31400000000000000          0.0000000000000000     
  0.31700000000000000          0.0000000000000000     
  0.32000000000000001          0.0000000000000000     
  0.32300000000000001          0.0000000000000000     
  0.32600000000000001          0.0000000000000000     
  0.32900000000000001          0.0000000000000000     
  0.33200000000000002          0.0000000000000000     
  0.33500000000000002          0.0000000000000000     
  0.33800000000000002          0.0000000000000000     
  0.34100000000000003          0.0000000000000000     
  0.34400000000000003          0.0000000000000000     
  0.34700000000000003          0.0000000000000000     
  0.35000000000000003          0.0000000000000000     
  0.35300000000000004          0.0000000000000000     
  0.35600000000000004          0.0000000000000000     
  0.35900000000000004          0.0000000000000000     
  0.36200000000000004          0.0000000000000000     
  0.36500000000000005          0.0000000000000000     
  0.36800000000000005          0.0000000000000000     
  0.37100000000000005          0.0000000000000000     
  0.37400000000000005          0.0000000000000000     
  0.37700000000000006          0.0000000000000000     
  0.38000000000000006          0.0000000000000000     
  0.38300000000000006          0.0000000000000000     
  0.38600000000000007          0.0000000000000000     
  0.38900000000000007          0.0000000000000000     
  0.39200000000000007          0.0000000000000000     
  0.39500000000000007          0.0000000000000000     
  0.39800000000000008          0.0000000000000000     
  0.40100000000000008          0.0000000000000000     
  0.40400000000000008          0.0000000000000000     
  0.40700000000000008          0.0000000000000000     
  0.41000000000000009          0.0000000000000000     
  0.41300000000000009          0.0000000000000000     
  0.41600000000000009          0.0000000000000000     
  0.41900000000000009          0.0000000000000000     
  0.42200000000000010          0.0000000000000000     
  0.42500000000000010          0.0000000000000000     
  0.42800000000000010          0.0000000000000000     
  0.43100000000000011          0.0000000000000000     
  0.43400000000000000          0.0000000000000000     
  0.43700000000000000          0.0000000000000000     
  0.44000000000000000          0.0000000000000000     
  0.44300000000000000          0.0000000000000000     
  0.44600000000000001          0.0000000000000000     
  0.44900000000000001          0.0000000000000000     
  0.45200000000000001          0.0000000000000000     
  0.45500000000000002          0.0000000000000000     
  0.45800000000000002          0.0000000000000000     
  0.46100000000000002          0.0000000000000000     
  0.46400000000000002          0.0000000000000000     
  0.46700000000000003          0.0000000000000000     
  0.47000000000000003          0.0000000000000000     
  0.47300000000000003          0.0000000000000000     
  0.47600000000000003          0.0000000000000000     
  0.47900000000000004          0.0000000000000000     
  0.48200000000000004          0.0000000000000000     
  0.48500000000000004          0.0000000000000000     
  0.48800000000000004          0.0000000000000000     
  0.49100000000000005          0.0000000000000000     
  0.49400000000000005          0.0000000000000000     
  0.49700000000000005          0.0000000000000000     
  0.50000000000000000          0.0000000000000000     
  0.50300000000000011          0.0000000000000000     
  0.50600000000000001          0.0000000000000000     
  0.50900000000000012          0.0000000000000000     
  0.51200000000000001          0.0000000000000000     
  0.51500000000000012          0.0000000000000000     
  0.51800000000000002          0.0000000000000000     
  0.52100000000000013          0.0000000000000000     
  0.52400000000000002          0.0000000000000000     
  0.52700000000000014          0.0000000000000000     
  0.53000000000000003          0.0000000000000000     
  0.53300000000000014          0.0000000000000000     
  0.53600000000000003          0.0000000000000000     
  0.53900000000000015          0.0000000000000000     
  0.54200000000000004          0.0000000000000000     
  0.54500000000000015          0.0000000000000000     
  0.54800000000000004          0.0000000000000000     
  0.55100000000000016          0.0000000000000000     
  0.55400000000000005          0.0000000000000000     
  0.55700000000000016          0.0000000000000000     
  0.56000000000000005          0.0000000000000000     
  0.56299999999999994          0.0000000000000000     
  0.56600000000000006          0.0000000000000000     
  0.56899999999999995          0.0000000000000000     
  0.57200000000000006          0.0000000000000000     
  0.57499999999999996          0.0000000000000000     
  0.57800000000000007          0.0000000000000000     
  0.58099999999999996          0.0000000000000000     
  0.58400000000000007          0.0000000000000000     
  0.58699999999999997          0.0000000000000000     
  0.59000000000000008          0.0000000000000000     
  0.59299999999999997          0.0000000000000000     
  0.59600000000000009          0.0000000000000000     
  0.59899999999999998          0.0000000000000000     
  0.60200000000000009          0.0000000000000000     
  0.60500000000000020          0.0000000000000000     
  0.60800000000000010          0.0000000000000000     
  0.61100000000000021          0.0000000000000000     
  0.61400000000000010          0.0000000000000000     
  0.61700000000000021          0.0000000000000000     
  0.62000000000000011          0.0000000000000000     
  0.62300000000000022          0.0000000000000000     
  0.62600000000000011          0.0000000000000000     
  0.62900000000000000          0.0000000000000000     
  0.63200000000000012          0.0000000000000000     
  0.63500000000000001          0.0000000000000000     
  0.63800000000000012          0.0000000000000000     
  0.64100000000000001          0.0000000000000000     
  0.64400000000000013          0.0000000000000000     
  0.64700000000000002          0.0000000000000000     
  0.65000000000000013          0.0000000000000000     
  0.65300000000000002          0.0000000000000000     
  0.65600000000000014          0.0000000000000000     
  0.65900000000000003          0.0000000000000000     
  0.66200000000000014          0.0000000000000000     
  0.66500000000000004          0.0000000000000000     
  0.66800000000000015          0.0000000000000000     
  0.67100000000000004          0.0000000000000000     
  0.67400000000000015          0.0000000000000000     
  0.67700000000000005          0.0000000000000000     
  0.68000000000000016          0.0000000000000000     
  0.68300000000000005          0.0000000000000000     
  0.68600000000000017          0.0000000000000000     
  0.68900000000000006          0.0000000000000000     
  0.69200000000000017          0.0000000000000000     
  0.69500000000000006          0.0000000000000000     
  0.69800000000000018          0.0000000000000000     
  0.70100000000000007          0.0000000000000000     
  0.70400000000000018          0.0000000000000000     
  0.70700000000000007          0.0000000000000000     
  0.71000000000000019          0.0000000000000000     
  0.71300000000000008          0.0000000000000000     
  0.71600000000000019          0.0000000000000000     
  0.71900000000000008          0.0000000000000000     
  0.72200000000000020          0.0000000000000000     
  0.72500000000000009          0.0000000000000000     
  0.72800000000000020          0.0000000000000000     
  0.73100000000000009          0.0000000000000000     
  0.73400000000000021          0.0000000000000000     
  0.73700000000000010          0.0000000000000000     
  0.74000000000000021          0.0000000000000000     
  0.74300000000000010          0.0000000000000000     
  0.74600000000000022          0.0000000000000000     
  0.74900000000000011          0.0000000000000000     
  0.75200000000000022          0.0000000000000000     
  0.75500000000000012          0.0000000000000000     
  0.75800000000000001          0.0000000000000000     
  0.76100000000000012          0.0000000000000000     
  0.76400000000000001          0.0000000000000000     
  0.76700000000000013          0.0000000000000000     
  0.77000000000000002          0.0000000000000000     
  0.77300000000000013          1.7100796271083021E-041
  0.77600000000000002          1.6466104467891589E-041
  0.77900000000000014         -4.1028172314345634E-041
  0.78200000000000003         -1.3600573755362880E-040
  0.78500000000000014         -2.1097163853394957E-039
  0.78800000000000003         -2.7987426206665482E-039
  0.79100000000000015         -3.1514210923544055E-039
  0.79400000000000004         -2.7363352249759264E-039
  0.79700000000000015         -1.4583768134898466E-039
  0.80000000000000004         -7.7943821616093782E-041
  0.80300000000000016          3.1224725581877751E-039
  0.80600000000000005          1.3253927032082946E-038
  0.80900000000000016          9.2773301775003177E-039
  0.81200000000000006          1.1318845192481394E-038
  0.81500000000000017          1.2250207137471282E-038
  0.81800000000000006          1.2406554378898762E-039
  0.82100000000000017         -1.1984142048011990E-038
  0.82400000000000007         -2.7739493369502772E-038
  0.82700000000000018         -4.4334329391869728E-038
  0.83000000000000007         -5.8276323792589332E-038
  0.83300000000000018         -6.4409466290011431E-038
  0.83600000000000008         -5.7862048568068916E-038
  0.83900000000000019         -3.8605987744009655E-038
  0.84200000000000008         -1.1339192585143868E-038
  0.84500000000000020          3.8884378438196524E-038
  0.84800000000000009          1.0135205635918218E-037
  0.85100000000000020          1.6686295106534094E-037
  0.85400000000000009          2.2531764729072638E-037
  0.85700000000000021          2.6037319094867689E-037
  0.86000000000000010          2.5137483944557398E-037
  0.86300000000000021          1.8604493057805077E-037
  0.86600000000000010          5.5331301022355562E-038
  0.86900000000000022         -1.4066508780952324E-037
  0.87200000000000011         -3.8451959619508598E-037
  0.87500000000000022         -6.4690960499297730E-037
  0.87800000000000011         -8.7777531954309152E-037
  0.88100000000000001         -1.0178873490398876E-036
  0.88400000000000012         -1.0030829859567347E-036
  0.88700000000000001         -7.7529193561212819E-037
  0.89000000000000012         -2.9885231508291249E-037
  0.89300000000000002          4.2440299611957840E-037
  0.89600000000000013          1.3427692003520848E-036
  0.89900000000000002          2.3455048825153991E-036
  0.90200000000000014          3.2618331328901271E-036
  0.90500000000000003          3.8748968079610035E-036
  0.90800000000000014          3.9487557936690383E-036
  0.91100000000000003          3.2656921126289749E-036
  0.91400000000000015          1.6767471182880431E-036
  0.91700000000000004         -8.4271101472526018E-037
  0.92000000000000015         -4.1440815701238189E-036
  0.92300000000000004         -7.8727230979311027E-036
  0.92600000000000016         -1.1461778194526960E-035
  0.92900000000000005         -1.4165357298617333E-035
  0.93200000000000016         -1.5139519952251268E-035
  0.93500000000000005         -1.3569157548562144E-035
  0.93800000000000017         -8.8326346688344272E-036
  0.94100000000000006         -6.8786666810272165E-037
  0.94400000000000017          1.0548748565278154E-035
  0.94700000000000006          2.3867857862881415E-035
  0.95000000000000018          3.7515954655052657E-035
  0.95300000000000007          4.9063279045734576E-035
  0.95600000000000018          5.5630266265829594E-035
  0.95900000000000007          5.4246769663425968E-035
  0.96200000000000019          4.2386681296022749E-035
  0.96500000000000008          1.8569763418665446E-035
  0.96800000000000019         -1.7013663162995542E-035
  0.97100000000000009         -6.1974980168691079E-035
  0.97400000000000020         -1.1142272728237403E-034
  0.97700000000000009         -1.5800588853213128E-034
  0.98000000000000020         -1.9241110409669540E-034
  0.98300000000000010         -2.0436950251735394E-034
  0.98600000000000021         -1.8415986394472979E-034
  0.98900000000000010         -1.2450000054570420E-034
  0.99200000000000021         -2.2620691344935854E-035
  0.99500000000000011          1.1778518854481103E-034
  0.99800000000000022          2.8511250946361218E-034
   1.0010000000000001          4.5930173384887677E-034
   1.0040000000000002          6.1257423580453131E-034
   1.0070000000000001          7.1172909523321775E-034
   1.0100000000000000          7.2207080800778743E-034
   1.0130000000000001          6.1283203317600396E-034
   1.0160000000000000          3.6359750412494990E-034
   1.0190000000000001         -2.8998347675751175E-035
   1.0220000000000000         -5.4537541102588058E-034
   1.0250000000000001         -1.1391069511235142E-033
   1.0280000000000000         -1.7362762439643871E-033
   1.0310000000000001         -2.2391591901613499E-033
   1.0340000000000000         -2.5349320904819839E-033
   1.0370000000000001         -2.5094713256557544E-033
   1.0400000000000000         -2.0655104264027140E-033
   1.0430000000000001         -1.1435336095848153E-033
   1.0460000000000000          2.5719477799015595E-034
   1.0490000000000002          2.0607210679131291E-033
   1.0520000000000000          4.1034041183929030E-033
   1.0550000000000002          6.1336060873745322E-033
   1.0580000000000001          7.8251153414580270E-033
   1.0610000000000002          8.8062645549344981E-033
   1.0640000000000001          8.7046196122775003E-033
   1.0670000000000002          7.2048183084422974E-033
   1.0700000000000001          4.1143070788272376E-033
   1.0730000000000002         -5.7079710305581380E-034
   1.0760000000000001         -6.6098155045570426E-033
   1.0790000000000002         -1.3482908246020841E-032
   1.0820000000000001         -2.0388911558401533E-032
   1.0850000000000002         -2.6285093568214009E-032
   1.0880000000000001         -2.9974614818323229E-032
   1.0910000000000002         -3.0241661729404064E-032
   1.0940000000000001         -2.6027795654286145E-032
   1.0970000000000002         -1.6634515922594061E-032
