 -0.39999999999999997          0.0000000000000000     
 -0.39699999999999996          0.0000000000000000     
 -0.39399999999999996          0.0000000000000000     
 -0.39099999999999996          0.0000000000000000     
 -0.38799999999999996          0.0000000000000000     
 -0.38499999999999995          0.0000000000000000     
 -0.38199999999999995          0.0000000000000000     
 -0.37899999999999995          0.0000000000000000     
 -0.37599999999999995          0.0000000000000000     
 -0.37299999999999994          0.0000000000000000     
 -0.37000000000000000          0.0000000000000000     
 -0.36699999999999999          0.0000000000000000     
 -0.36399999999999999          0.0000000000000000     
 -0.36099999999999999          0.0000000000000000     
 -0.35799999999999998          0.0000000000000000     
 -0.35499999999999998          0.0000000000000000     
 -0.35199999999999998          0.0000000000000000     
 -0.34899999999999998          0.0000000000000000     
 -0.34599999999999997          0.0000000000000000     
 -0.34299999999999997          0.0000000000000000     
 -0.33999999999999997          0.0000000000000000     
 -0.33699999999999997          0.0000000000000000     
 -0.33399999999999996          0.0000000000000000     
 -0.33099999999999996          0.0000000000000000     
 -0.32799999999999996          0.0000000000000000     
 -0.32499999999999996          0.0000000000000000     
 -0.32199999999999995          0.0000000000000000     
 -0.31899999999999995          0.0000000000000000     
 -0.31599999999999995          0.0000000000000000     
 -0.31299999999999994          0.0000000000000000     
 -0.30999999999999994          0.0000000000000000     
 -0.30699999999999994          0.0000000000000000     
 -0.30399999999999994          0.0000000000000000     
 -0.30099999999999993          0.0000000000000000     
 -0.29799999999999993          0.0000000000000000     
 -0.29499999999999998          0.0000000000000000     
 -0.29199999999999998          0.0000000000000000     
 -0.28899999999999998          0.0000000000000000     
 -0.28599999999999998          0.0000000000000000     
 -0.28299999999999997          0.0000000000000000     
 -0.27999999999999997          0.0000000000000000     
 -0.27699999999999997          0.0000000000000000     
 -0.27399999999999997          0.0000000000000000     
 -0.27099999999999996          0.0000000000000000     
 -0.26799999999999996          0.0000000000000000     
 -0.26499999999999996          0.0000000000000000     
 -0.26199999999999996          0.0000000000000000     
 -0.25899999999999995          0.0000000000000000     
 -0.25599999999999995          0.0000000000000000     
 -0.25300000000000000          0.0000000000000000     
 -0.24999999999999997          0.0000000000000000     
 -0.24699999999999997          0.0000000000000000     
 -0.24399999999999997          0.0000000000000000     
 -0.24099999999999996          0.0000000000000000     
 -0.23799999999999996          0.0000000000000000     
 -0.23499999999999996          0.0000000000000000     
 -0.23199999999999996          0.0000000000000000     
 -0.22899999999999995          0.0000000000000000     
 -0.22599999999999995          0.0000000000000000     
 -0.22299999999999998          0.0000000000000000     
 -0.21999999999999997          0.0000000000000000     
 -0.21699999999999997          0.0000000000000000     
 -0.21399999999999997          0.0000000000000000     
 -0.21099999999999997          0.0000000000000000     
 -0.20799999999999996          0.0000000000000000     
 -0.20499999999999996          0.0000000000000000     
 -0.20199999999999996          0.0000000000000000     
 -0.19899999999999995          0.0000000000000000     
 -0.19599999999999995          0.0000000000000000     
 -0.19299999999999995          0.0000000000000000     
 -0.18999999999999997          0.0000000000000000     
 -0.18699999999999997          0.0000000000000000     
 -0.18399999999999997          0.0000000000000000     
 -0.18099999999999997         -5.7024845906938706E-041
 -0.17799999999999996          0.0000000000000000     
 -0.17499999999999996          1.5284698869569271E-040
 -0.17199999999999996          1.0522507131258260E-040
 -0.16899999999999996         -6.3995521924424387E-039
 -0.16599999999999995         -1.3334080250379958E-040
 -0.16299999999999995          1.0444157808329922E-038
 -0.15999999999999998          7.7147153907108597E-039
 -0.15699999999999997         -5.5847284813372343E-039
 -0.15399999999999997         -2.8922010698124896E-038
 -0.15099999999999997         -4.4645843322429322E-038
 -0.14799999999999996          4.1117857443675208E-038
 -0.14499999999999996          2.4444360409791652E-037
 -0.14199999999999996          8.6429907262651501E-038
 -0.13899999999999996         -7.1342500609461961E-037
 -0.13599999999999995         -8.6399918590441712E-037
 -0.13299999999999995          1.1810457226432204E-036
 -0.12999999999999995          3.3661095008525949E-036
 -0.12699999999999995          5.4162529681624448E-037
 -0.12399999999999994         -7.8381644295880377E-036
 -0.12099999999999994         -1.1280055022194489E-035
 -0.11799999999999994          6.1014148779337045E-036
 -0.11499999999999994          4.0218822316763143E-035
 -0.11199999999999993          3.7064551964246030E-035
 -0.10899999999999999         -6.6958877276381165E-035
 -0.10599999999999998         -1.9235531213870935E-034
 -0.10299999999999998         -6.0985438932068982E-035
  -9.9999999999999978E-002     4.4415541044789730E-034
  -9.6999999999999975E-002     7.4312232074776007E-034
  -9.3999999999999972E-002    -1.8276180216811442E-034
  -9.0999999999999970E-002    -2.2099862691813458E-033
  -8.7999999999999967E-002    -2.5972718516954232E-033
  -8.4999999999999964E-002     2.1923733216242195E-033
  -8.1999999999999962E-002     1.0035191298689981E-032
  -7.8999999999999959E-002     8.5644089843364945E-033
  -7.5999999999999956E-002    -1.4189850968506160E-032
  -7.2999999999999954E-002    -4.2932482469664127E-032
  -6.9999999999999951E-002    -2.5394572743333726E-032
  -6.6999999999999948E-002     7.3770447730651216E-032
  -6.3999999999999946E-002     1.7407192666209111E-031
  -6.0999999999999943E-002     7.0391340763902110E-032
  -5.7999999999999940E-002    -3.3821619215126606E-031
  -5.4999999999999938E-002    -6.9027642490906926E-031
  -5.1999999999999935E-002    -1.9361454357073053E-031
  -4.8999999999999932E-002     1.4440725324205846E-030
  -4.5999999999999985E-002     2.7056566629878880E-030
  -4.2999999999999983E-002     5.7804557931859105E-031
  -3.9999999999999980E-002    -5.8177649847208759E-030
  -3.6999999999999977E-002    -1.0518708883446044E-029
  -3.3999999999999975E-002    -2.2276834425765320E-030
  -3.0999999999999972E-002     2.2221042515475496E-029
  -2.7999999999999969E-002     4.0714497929799951E-029
  -2.4999999999999967E-002     1.1084733262258780E-029
  -2.1999999999999964E-002    -8.0485296154686021E-029
  -1.8999999999999961E-002    -1.5620365177605796E-028
  -1.5999999999999959E-002    -6.0273205445010815E-029
  -1.2999999999999956E-002     2.7349999070663359E-028
  -9.9999999999999534E-003     5.8863892049663167E-028
  -6.9999999999999507E-003     3.2009177852716157E-028
  -3.9999999999999480E-003    -8.5269256880194276E-028
  -9.9999999999994538E-004    -2.1535532056054574E-027
   2.0000000000000573E-003    -1.5899234372271291E-027
   5.0000000000000600E-003     2.3264039451299238E-027
   8.0000000000000626E-003     7.5319437102681659E-027
   1.1000000000000065E-002     7.2956625597619530E-027
   1.4000000000000068E-002    -4.8611027898605171E-027
   1.7000000000000015E-002    -2.4685087598601942E-026
   2.0000000000000018E-002    -3.0797687466929626E-026
   2.3000000000000020E-002     3.0023908357534343E-027
   2.6000000000000023E-002     7.3641185756842810E-026
   2.9000000000000026E-002     1.1894894873969602E-025
   3.2000000000000028E-002     4.1301701344515944E-026
   3.5000000000000031E-002    -1.8962962754928274E-025
   3.8000000000000034E-002    -4.1596023977099883E-025
   4.1000000000000036E-002    -3.0626008800324180E-025
   4.4000000000000039E-002     3.6668165474254116E-025
   4.7000000000000042E-002     1.2908733099152032E-024
   5.0000000000000044E-002     1.4597138156946137E-024
   5.3000000000000047E-002    -1.9399574246696891E-025
   5.6000000000000050E-002    -3.4107942983200703E-024
   5.9000000000000052E-002    -5.5510176693513067E-024
   6.2000000000000055E-002    -2.6178159202145205E-024
   6.5000000000000058E-002     6.8900459841805353E-024
   6.8000000000000060E-002     1.7480420172276311E-023
   7.1000000000000063E-002     1.6671657557292855E-023
   7.4000000000000066E-002    -6.1213596464660027E-024
   7.7000000000000068E-002    -4.4440280030586783E-023
   8.0000000000000016E-002    -6.6243620960213652E-023
   8.3000000000000018E-002    -2.8650716603934654E-023
   8.6000000000000021E-002     8.0388338762510646E-023
   8.9000000000000024E-002     1.9890299269617449E-022
   9.2000000000000026E-002     1.9601131370943453E-022
   9.5000000000000029E-002    -3.7794437358760321E-023
   9.8000000000000032E-002    -4.4515812979984216E-022
  0.10100000000000003         -7.1994506561995216E-022
  0.10400000000000004         -4.3550719841131044E-022
  0.10700000000000004          5.8408823832476102E-022
  0.11000000000000004          1.8589575023826539E-021
  0.11300000000000004          2.2283782250007795E-021
  0.11600000000000005          5.3684240667949716E-022
  0.11900000000000005         -3.1384292682565097E-021
  0.12200000000000005         -6.5881199573016103E-021
  0.12500000000000006         -6.0831512999168047E-021
  0.12800000000000006          9.9418290599454690E-022
  0.13100000000000006          1.2670826982570800E-020
  0.13400000000000006          2.0914783159448996E-020
  0.13700000000000007          1.5061801755059627E-020
  0.14000000000000007         -9.7589850195272059E-021
  0.14300000000000007         -4.3837999788529728E-020
  0.14600000000000007         -6.1810600950757404E-020
  0.14900000000000008         -3.5437421218855853E-020
  0.15200000000000008          4.2452823234620671E-020
  0.15500000000000008          1.3738419508685625E-019
  0.15800000000000008          1.7648847282577075E-019
  0.16100000000000009          8.7450946532699637E-020
  0.16400000000000009         -1.3887781417196879E-019
  0.16700000000000009         -4.0124558553475869E-019
  0.17000000000000010         -5.0427975838451112E-019
  0.17300000000000010         -2.6080030302582847E-019
  0.17600000000000010          3.5423444616443738E-019
  0.17899999999999999          1.0907111968572733E-018
  0.18200000000000000          1.4586324072206097E-018
  0.18500000000000000          9.5982787365805492E-019
  0.18800000000000000         -5.5642611362881247E-019
  0.19100000000000000         -2.6066340658291175E-018
  0.19400000000000001         -4.0824301782919908E-018
  0.19700000000000001         -3.6778413929433826E-018
  0.20000000000000001         -6.3268767889192963E-019
  0.20300000000000001          4.5448977111751739E-018
  0.20600000000000002          9.8183247569848836E-018
  0.20900000000000002          1.2142238156990953E-017
  0.21200000000000002          8.7415873186099649E-018
  0.21500000000000002         -1.2836916984423973E-018
  0.21800000000000003         -1.5750201959032293E-017
  0.22100000000000003         -2.9297684812809354E-017
  0.22400000000000003         -3.4789255496533723E-017
  0.22700000000000004         -2.6004578783010204E-017
  0.23000000000000004         -8.1015793225795357E-019
  0.23300000000000004          3.6420653093299133E-017
  0.23600000000000004          7.4382504148825153E-017
  0.23900000000000005          9.7179647089157121E-017
  0.24200000000000005          8.9299810155557357E-017
  0.24500000000000005          4.1982138419763760E-017
  0.24800000000000005         -4.1174718167525347E-017
  0.25100000000000006         -1.4178962300902202E-016
  0.25400000000000006         -2.2921429192268881E-016
  0.25700000000000006         -2.6817840503252379E-016
  0.26000000000000006         -2.2979111014384773E-016
  0.26300000000000007         -1.0257622241115154E-016
  0.26600000000000007          1.0020008402457644E-016
  0.26900000000000007          3.3964954894920753E-016
  0.27200000000000008          5.5755528934093274E-016
  0.27500000000000008          6.8840974655714607E-016
  0.27800000000000008          6.7432422705750781E-016
  0.28100000000000008          4.7960417386922822E-016
  0.28400000000000009          1.0231460737406365E-016
  0.28700000000000009         -4.1905455581092771E-016
  0.29000000000000009         -1.0051632487476801E-015
  0.29300000000000009         -1.5426466736531460E-015
  0.29600000000000010         -1.8986808751524795E-015
  0.29900000000000010         -1.9426547637920939E-015
  0.30200000000000010         -1.5726283222297098E-015
  0.30499999999999999         -7.4254955454684604E-016
  0.30800000000000000          5.1478728670093491E-016
  0.31100000000000000          2.0740344174442361E-015
  0.31400000000000000          3.7167432680584034E-015
  0.31700000000000000          5.1466097622795890E-015
  0.32000000000000001          6.0215728947781936E-015
  0.32300000000000001          6.0021691303570468E-015
  0.32600000000000001          4.8130863280474913E-015
  0.32900000000000001          2.3113678384860362E-015
  0.33200000000000002         -1.4489586573413846E-015
  0.33500000000000002         -6.1692118886082864E-015
  0.33800000000000002         -1.1289150106208761E-014
  0.34100000000000003         -1.6012447290485792E-014
  0.34400000000000003         -1.9380693039739199E-014
  0.34700000000000003         -2.0394677344839667E-014
  0.35000000000000003         -1.8173691511601873E-014
  0.35300000000000004         -1.2134724753144320E-014
  0.35600000000000004         -2.1670101394187969E-015
  0.35900000000000004          1.1228176806817393E-014
  0.36200000000000004          2.6862780421325576E-014
  0.36500000000000005          4.2878347233178010E-014
  0.36800000000000005          5.6869370506349432E-014
  0.37100000000000005          6.6115573231556647E-014
  0.37400000000000005          6.7909344745515778E-014
  0.37700000000000006          5.9949235654849320E-014
  0.38000000000000006          4.0759224155968147E-014
  0.38300000000000006          1.0084061757307606E-014
  0.38600000000000007         -3.0794472735221661E-014
  0.38900000000000007         -7.8876749428221012E-014
  0.39200000000000007         -1.2944762277163706E-013
  0.39500000000000007         -1.7630011734728892E-013
  0.39800000000000008         -2.1219545716844525E-013
  0.40100000000000008         -2.2954975333092014E-013
  0.40400000000000008         -2.2130730181563633E-013
  0.40700000000000008         -1.8193618053343505E-013
  0.41000000000000009         -1.0845238423936810E-013
  0.41300000000000009         -1.3579926675705515E-015
  0.41600000000000009          1.3462961122381027E-013
  0.41900000000000009          2.9018721649984423E-013
  0.42200000000000010          4.5144947355539450E-013
  0.42500000000000010          6.0060248031205615E-013
  0.42800000000000010          7.1705921545926714E-013
  0.43100000000000011          7.7917998191064176E-013
  0.43400000000000000          7.6647169597895128E-013
  0.43700000000000000          6.6210534188161764E-013
  0.44000000000000000          4.5555503970883951E-013
  0.44300000000000000          1.4508735597941514E-013
  0.44600000000000001         -2.6018676798894222E-013
  0.44900000000000001         -7.3899775995469912E-013
  0.45200000000000001         -1.2576023647097354E-012
  0.45500000000000002         -1.7706842116947032E-012
  0.45800000000000002         -2.2235731335456451E-012
  0.46100000000000002         -2.5557907396743323E-012
  0.46400000000000002         -2.7058025871993117E-012
  0.46700000000000003         -2.6167453807704946E-012
  0.47000000000000003         -2.2427327181834199E-012
  0.47300000000000003         -1.5552757480188869E-012
  0.47600000000000003         -5.4921446301761492E-013
  0.47900000000000004          7.5242694713077845E-013
  0.48200000000000004          2.2953354522971912E-012
  0.48500000000000004          3.9930443481664801E-012
  0.48800000000000004          5.7288494314853560E-012
  0.49100000000000005          7.3606741897585855E-012
  0.49400000000000005          8.7290461791470551E-012
  0.49700000000000005          9.6680042434847883E-012
  0.50000000000000000          1.0018496389198379E-011
  0.50300000000000011          9.6435672149010604E-012
  0.50600000000000001          8.4443195378658221E-012
  0.50900000000000012          6.3757339681257618E-012
  0.51200000000000001          3.4607129374561632E-012
  0.51500000000000012         -1.9866406712179070E-013
  0.51800000000000002         -4.4142977390592982E-012
  0.52100000000000013         -8.9105497431282089E-012
  0.52400000000000002         -1.3328996276836288E-011
  0.52700000000000014         -1.7240400707423505E-011
  0.53000000000000003         -2.0163509155690175E-011
  0.53300000000000014         -2.1590795420717585E-011
  0.53600000000000003         -2.1020132372977090E-011
  0.53900000000000015         -1.7991559527895470E-011
  0.54200000000000004         -1.2126731025632722E-011
  0.54500000000000015         -3.1698643438884403E-012
  0.54800000000000004          8.9723424619160060E-012
  0.55100000000000016          2.4194495741118117E-011
  0.55400000000000005          4.2161290995031580E-011
  0.55700000000000016          6.2283809398929059E-011
  0.56000000000000005          8.3705356435704058E-011
  0.56299999999999994          1.0529570874314704E-010
  0.56600000000000006          1.2565675979503374E-010
  0.56899999999999995          1.4313684527229777E-010
  0.57200000000000006          1.5585313275840402E-010
  0.57499999999999996          1.6171943714626905E-010
  0.57800000000000007          1.5847671416560203E-010
  0.58099999999999996          1.4372255227252659E-010
  0.58400000000000007          1.1493370904641971E-010
  0.58699999999999997          6.9479922045361288E-011
  0.59000000000000008          4.6210284210443876E-012
  0.59299999999999997         -8.2519450827968679E-011
  0.59600000000000009         -1.9499892753820021E-010
  0.59899999999999998         -3.3613680774732957E-010
  0.60200000000000009         -5.0962561482480411E-010
  0.60500000000000020         -7.1967615196857318E-010
  0.60800000000000010         -9.7120768415150452E-010
  0.61100000000000021         -1.2700676854661345E-009
  0.61400000000000010         -1.6232950924474118E-009
  0.61700000000000021         -2.0394364579233429E-009
  0.62000000000000011         -2.5288596525293961E-009
  0.62300000000000022         -3.1041533442288673E-009
  0.62600000000000011         -3.7805484448351588E-009
  0.62900000000000000         -4.5763161241409698E-009
  0.63200000000000012         -5.5133051296743525E-009
  0.63500000000000001         -6.6174189450520043E-009
  0.63800000000000012         -7.9191961032924511E-009
  0.64100000000000001         -9.4543923963129706E-009
  0.64400000000000013         -1.1264565363897617E-008
  0.64700000000000002         -1.3397830716843713E-008
  0.65000000000000013         -1.5909563591380094E-008
  0.65300000000000002         -1.8863122004749354E-008
  0.65600000000000014         -2.2330755673230139E-008
  0.65900000000000003         -2.6394628494794435E-008
  0.66200000000000014         -3.1147774709341021E-008
  0.66500000000000004         -3.6694960276718152E-008
  0.66800000000000015         -4.3154363781688118E-008
  0.67100000000000004         -5.0658461104870495E-008
  0.67400000000000015         -5.9355774219937835E-008
  0.67700000000000005         -6.9411597938460063E-008
  0.68000000000000016         -8.1011107386107913E-008
  0.68300000000000005         -9.4359638244946685E-008
  0.68600000000000017         -1.0968412240447709E-007
  0.68900000000000006         -1.2723698159299490E-007
  0.69200000000000017         -1.4729605000053153E-007
  0.69500000000000006         -1.7016672524847915E-007
  0.69800000000000018         -1.9618449922056446E-007
  0.70100000000000007         -2.2571527031656833E-007
  0.70400000000000018         -2.5915923572305123E-007
  0.70700000000000007         -2.9695024660412472E-007
  0.71000000000000019         -3.3955842022595545E-007
  0.71300000000000008         -3.8748817679812186E-007
  0.71600000000000019         -4.4128424756000391E-007
  0.71900000000000008         -5.0152784720236273E-007
  0.72200000000000020         -5.6883597880199665E-007
  0.72500000000000009         -6.4386245841784577E-007
  0.72800000000000020         -7.2730054580594430E-007
  0.73100000000000009         -8.1987154981029999E-007
  0.73400000000000021         -9.2232516978275223E-007
  0.73700000000000010         -1.0354470152188499E-006
  0.74000000000000021         -1.1600366318511916E-006
  0.74300000000000010         -1.2969106874824536E-006
  0.74600000000000022         -1.4468972811255795E-006
  0.74900000000000011         -1.6108321910900395E-006
  0.75200000000000022         -1.7895355059195920E-006
  0.75500000000000012         -1.9838137960962065E-006
  0.75800000000000001         -2.1944466314594950E-006
  0.76100000000000012         -2.4221785217680350E-006
  0.76400000000000001         -2.6676823206066358E-006
  0.76700000000000013         -2.9315704321233982E-006
  0.77000000000000002         -3.2143718778102730E-006
  0.77300000000000013         -3.5165142306064073E-006
  0.77600000000000002         -3.8382833790123685E-006
  0.77900000000000014         -4.1798377242199493E-006
  0.78200000000000003         -4.5411644023876091E-006
  0.78500000000000014         -4.9220714263938637E-006
  0.78800000000000003         -5.3221481031150507E-006
  0.79100000000000015         -5.7407760503864252E-006
  0.79400000000000004         -6.1770523590208177E-006
  0.79700000000000015         -6.6298330357676576E-006
  0.80000000000000004         -7.0976271179444727E-006
  0.80300000000000016         -7.5787434224094440E-006
  0.80600000000000005         -8.0710347696761463E-006
  0.80900000000000016         -8.5720919790071797E-006
  0.81200000000000006         -9.0791089346796080E-006
  0.81500000000000017         -9.5889228858559798E-006
  0.81800000000000006         -1.0097963292136116E-005
  0.82100000000000017         -1.0602383351456198E-005
  0.82400000000000007         -1.1097807627837666E-005
  0.82700000000000018         -1.1579703783634335E-005
  0.83000000000000007         -1.2042954922262960E-005
  0.83300000000000018         -1.2482309291985771E-005
  0.83600000000000008         -1.2892058363811420E-005
  0.83900000000000019         -1.3266316575772376E-005
  0.84200000000000008         -1.3598824236733955E-005
  0.84500000000000020         -1.3883366516663305E-005
  0.84800000000000009         -1.4113381810364058E-005
  0.85100000000000020         -1.4282271290413651E-005
  0.85400000000000009         -1.4383544523345030E-005
  0.85700000000000021         -1.4410515452487296E-005
  0.86000000000000010         -1.4356750588610172E-005
  0.86300000000000021         -1.4216013775028790E-005
  0.86600000000000010         -1.3982482845582120E-005
  0.86900000000000022         -1.3650670734574784E-005
  0.87200000000000011         -1.3215296777512535E-005
  0.87500000000000022         -1.2671936336148628E-005
  0.87800000000000011         -1.2016846915160755E-005
  0.88100000000000001         -1.1246635067182502E-005
  0.88400000000000012         -1.0359179635993064E-005
  0.88700000000000001         -9.3531014825616459E-006
  0.89000000000000012         -8.2279863984899245E-006
  0.89300000000000002         -6.9845407973854342E-006
  0.89600000000000013         -5.6244679016331898E-006
  0.89900000000000002         -4.1508662545101977E-006
  0.90200000000000014         -2.5677898682138041E-006
  0.90500000000000003         -8.8091368099701027E-007
  0.90800000000000014          9.0320581741106098E-007
  0.91100000000000003          2.7766364616850606E-006
  0.91400000000000015          4.7300974424959010E-006
  0.91700000000000004          6.7532051892923738E-006
  0.92000000000000015          8.8344292442865676E-006
  0.92300000000000004          1.0961193888161830E-005
  0.92600000000000016          1.3119470808602356E-005
  0.92900000000000005          1.5294660615205862E-005
  0.93200000000000016          1.7471647847105866E-005
  0.93500000000000005          1.9634291915877703E-005
  0.93800000000000017          2.1765970776230330E-005
  0.94100000000000006          2.3849800937715844E-005
  0.94400000000000017          2.5868586853522731E-005
  0.94700000000000006          2.7805026418043736E-005
  0.95000000000000018          2.9642097915829089E-005
  0.95300000000000007          3.1363201727521526E-005
  0.95600000000000018          3.2952274976891198E-005
  0.95900000000000007          3.4393982434865692E-005
  0.96200000000000019          3.5673771647344677E-005
  0.96500000000000008          3.6778281995706353E-005
  0.96800000000000019          3.7695259168758243E-005
  0.97100000000000009          3.8414040736200060E-005
  0.97400000000000020          3.8925501586076043E-005
  0.97700000000000009          3.9222155661545873E-005
  0.98000000000000020          3.9298403754660960E-005
  0.98300000000000010          3.9150618523398416E-005
  0.98600000000000021          3.8776877697204855E-005
  0.98900000000000010          3.8177345737657969E-005
  0.99200000000000021          3.7354419037831623E-005
  0.99500000000000011          3.6312323746240483E-005
  0.99800000000000022          3.5057437585679971E-005
   1.0010000000000001          3.3597919432169502E-005
   1.0040000000000002          3.1944014331863961E-005
   1.0070000000000001          3.0107566565669571E-005
   1.0100000000000000          2.8101844724742406E-005
   1.0130000000000001          2.5942079673141341E-005
   1.0160000000000000          2.3644840860178537E-005
   1.0190000000000001          2.1227538850106474E-005
   1.0220000000000000          1.8708688447437575E-005
   1.0250000000000001          1.6107770814655519E-005
   1.0280000000000000          1.3444692236769461E-005
   1.0310000000000001          1.0739351416704116E-005
   1.0340000000000000          8.0121526414911103E-006
   1.0370000000000001          5.2837807324572471E-006
   1.0400000000000000          2.5740450752109523E-006
   1.0430000000000001         -9.7641251960009306E-008
   1.0460000000000000         -2.7125241470476527E-006
   1.0490000000000002         -5.2523858874499694E-006
   1.0520000000000000         -7.7004605080045974E-006
   1.0550000000000002         -1.0041410756215581E-005
   1.0580000000000001         -1.2260430295711866E-005
   1.0610000000000002         -1.4344596810683518E-005
   1.0640000000000001         -1.6282980987290333E-005
   1.0670000000000002         -1.8066075022133829E-005
   1.0700000000000001         -1.9685627371893550E-005
   1.0730000000000002         -2.1135022299222256E-005
   1.0760000000000001         -2.2410186430547287E-005
   1.0790000000000002         -2.3508135519503286E-005
   1.0820000000000001         -2.4427283986710834E-005
   1.0850000000000002         -2.5168335800360297E-005
   1.0880000000000001         -2.5733591636376882E-005
   1.0910000000000002         -2.6126439818893538E-005
   1.0940000000000001         -2.6351224494456481E-005
   1.0970000000000002         -2.6414651392577666E-005
