 -0.39999999999999997          0.0000000000000000     
 -0.39699999999999996          0.0000000000000000     
 -0.39399999999999996          0.0000000000000000     
 -0.39099999999999996          0.0000000000000000     
 -0.38799999999999996          0.0000000000000000     
 -0.38499999999999995          0.0000000000000000     
 -0.38199999999999995          0.0000000000000000     
 -0.37899999999999995          0.0000000000000000     
 -0.37599999999999995          0.0000000000000000     
 -0.37299999999999994          0.0000000000000000     
 -0.37000000000000000          0.0000000000000000     
 -0.36699999999999999          0.0000000000000000     
 -0.36399999999999999          0.0000000000000000     
 -0.36099999999999999          0.0000000000000000     
 -0.35799999999999998          0.0000000000000000     
 -0.35499999999999998          0.0000000000000000     
 -0.35199999999999998          0.0000000000000000     
 -0.34899999999999998          0.0000000000000000     
 -0.34599999999999997          0.0000000000000000     
 -0.34299999999999997          0.0000000000000000     
 -0.33999999999999997          0.0000000000000000     
 -0.33699999999999997          0.0000000000000000     
 -0.33399999999999996          0.0000000000000000     
 -0.33099999999999996          0.0000000000000000     
 -0.32799999999999996          0.0000000000000000     
 -0.32499999999999996          0.0000000000000000     
 -0.32199999999999995          0.0000000000000000     
 -0.31899999999999995          0.0000000000000000     
 -0.31599999999999995          0.0000000000000000     
 -0.31299999999999994          0.0000000000000000     
 -0.30999999999999994          0.0000000000000000     
 -0.30699999999999994          0.0000000000000000     
 -0.30399999999999994          0.0000000000000000     
 -0.30099999999999993          0.0000000000000000     
 -0.29799999999999993          0.0000000000000000     
 -0.29499999999999998          0.0000000000000000     
 -0.29199999999999998          0.0000000000000000     
 -0.28899999999999998          0.0000000000000000     
 -0.28599999999999998          0.0000000000000000     
 -0.28299999999999997          0.0000000000000000     
 -0.27999999999999997          0.0000000000000000     
 -0.27699999999999997          0.0000000000000000     
 -0.27399999999999997          0.0000000000000000     
 -0.27099999999999996          0.0000000000000000     
 -0.26799999999999996          0.0000000000000000     
 -0.26499999999999996          0.0000000000000000     
 -0.26199999999999996          0.0000000000000000     
 -0.25899999999999995          0.0000000000000000     
 -0.25599999999999995          0.0000000000000000     
 -0.25300000000000000          0.0000000000000000     
 -0.24999999999999997          0.0000000000000000     
 -0.24699999999999997          0.0000000000000000     
 -0.24399999999999997          0.0000000000000000     
 -0.24099999999999996          0.0000000000000000     
 -0.23799999999999996          0.0000000000000000     
 -0.23499999999999996          0.0000000000000000     
 -0.23199999999999996          0.0000000000000000     
 -0.22899999999999995          0.0000000000000000     
 -0.22599999999999995          0.0000000000000000     
 -0.22299999999999998          0.0000000000000000     
 -0.21999999999999997          0.0000000000000000     
 -0.21699999999999997          0.0000000000000000     
 -0.21399999999999997          0.0000000000000000     
 -0.21099999999999997          0.0000000000000000     
 -0.20799999999999996          0.0000000000000000     
 -0.20499999999999996          0.0000000000000000     
 -0.20199999999999996          0.0000000000000000     
 -0.19899999999999995          0.0000000000000000     
 -0.19599999999999995          0.0000000000000000     
 -0.19299999999999995          0.0000000000000000     
 -0.18999999999999997          0.0000000000000000     
 -0.18699999999999997          0.0000000000000000     
 -0.18399999999999997          0.0000000000000000     
 -0.18099999999999997          0.0000000000000000     
 -0.17799999999999996          0.0000000000000000     
 -0.17499999999999996          0.0000000000000000     
 -0.17199999999999996          0.0000000000000000     
 -0.16899999999999996          0.0000000000000000     
 -0.16599999999999995          0.0000000000000000     
 -0.16299999999999995          0.0000000000000000     
 -0.15999999999999998          0.0000000000000000     
 -0.15699999999999997          0.0000000000000000     
 -0.15399999999999997          0.0000000000000000     
 -0.15099999999999997          0.0000000000000000     
 -0.14799999999999996          0.0000000000000000     
 -0.14499999999999996          0.0000000000000000     
 -0.14199999999999996          0.0000000000000000     
 -0.13899999999999996          0.0000000000000000     
 -0.13599999999999995          0.0000000000000000     
 -0.13299999999999995          0.0000000000000000     
 -0.12999999999999995          0.0000000000000000     
 -0.12699999999999995          0.0000000000000000     
 -0.12399999999999994          0.0000000000000000     
 -0.12099999999999994          0.0000000000000000     
 -0.11799999999999994          0.0000000000000000     
 -0.11499999999999994          0.0000000000000000     
 -0.11199999999999993          0.0000000000000000     
 -0.10899999999999999          0.0000000000000000     
 -0.10599999999999998          0.0000000000000000     
 -0.10299999999999998          0.0000000000000000     
  -9.9999999999999978E-002     0.0000000000000000     
  -9.6999999999999975E-002     0.0000000000000000     
  -9.3999999999999972E-002     0.0000000000000000     
  -9.0999999999999970E-002     0.0000000000000000     
  -8.7999999999999967E-002     0.0000000000000000     
  -8.4999999999999964E-002     0.0000000000000000     
  -8.1999999999999962E-002     0.0000000000000000     
  -7.8999999999999959E-002     0.0000000000000000     
  -7.5999999999999956E-002     0.0000000000000000     
  -7.2999999999999954E-002     0.0000000000000000     
  -6.9999999999999951E-002     0.0000000000000000     
  -6.6999999999999948E-002     0.0000000000000000     
  -6.3999999999999946E-002     0.0000000000000000     
  -6.0999999999999943E-002     0.0000000000000000     
  -5.7999999999999940E-002     0.0000000000000000     
  -5.4999999999999938E-002     0.0000000000000000     
  -5.1999999999999935E-002     0.0000000000000000     
  -4.8999999999999932E-002     0.0000000000000000     
  -4.5999999999999985E-002     0.0000000000000000     
  -4.2999999999999983E-002     0.0000000000000000     
  -3.9999999999999980E-002     0.0000000000000000     
  -3.6999999999999977E-002     0.0000000000000000     
  -3.3999999999999975E-002     0.0000000000000000     
  -3.0999999999999972E-002     0.0000000000000000     
  -2.7999999999999969E-002     0.0000000000000000     
  -2.4999999999999967E-002     0.0000000000000000     
  -2.1999999999999964E-002     0.0000000000000000     
  -1.8999999999999961E-002     0.0000000000000000     
  -1.5999999999999959E-002     0.0000000000000000     
  -1.2999999999999956E-002     0.0000000000000000     
  -9.9999999999999534E-003     0.0000000000000000     
  -6.9999999999999507E-003     0.0000000000000000     
  -3.9999999999999480E-003     0.0000000000000000     
  -9.9999999999994538E-004     0.0000000000000000     
   2.0000000000000573E-003     0.0000000000000000     
   5.0000000000000600E-003     0.0000000000000000     
   8.0000000000000626E-003     0.0000000000000000     
   1.1000000000000065E-002     0.0000000000000000     
   1.4000000000000068E-002     0.0000000000000000     
   1.7000000000000015E-002     0.0000000000000000     
   2.0000000000000018E-002     0.0000000000000000     
   2.3000000000000020E-002     0.0000000000000000     
   2.6000000000000023E-002     0.0000000000000000     
   2.9000000000000026E-002     0.0000000000000000     
   3.2000000000000028E-002     0.0000000000000000     
   3.5000000000000031E-002     0.0000000000000000     
   3.8000000000000034E-002     0.0000000000000000     
   4.1000000000000036E-002     0.0000000000000000     
   4.4000000000000039E-002     0.0000000000000000     
   4.7000000000000042E-002     0.0000000000000000     
   5.0000000000000044E-002     0.0000000000000000     
   5.3000000000000047E-002     0.0000000000000000     
   5.6000000000000050E-002     0.0000000000000000     
   5.9000000000000052E-002     0.0000000000000000     
   6.2000000000000055E-002     0.0000000000000000     
   6.5000000000000058E-002     0.0000000000000000     
   6.8000000000000060E-002     0.0000000000000000     
   7.1000000000000063E-002     0.0000000000000000     
   7.4000000000000066E-002     0.0000000000000000     
   7.7000000000000068E-002     0.0000000000000000     
   8.0000000000000016E-002     0.0000000000000000     
   8.3000000000000018E-002     0.0000000000000000     
   8.6000000000000021E-002     0.0000000000000000     
   8.9000000000000024E-002     0.0000000000000000     
   9.2000000000000026E-002     0.0000000000000000     
   9.5000000000000029E-002     0.0000000000000000     
   9.8000000000000032E-002     0.0000000000000000     
  0.10100000000000003          0.0000000000000000     
  0.10400000000000004          0.0000000000000000     
  0.10700000000000004          0.0000000000000000     
  0.11000000000000004          0.0000000000000000     
  0.11300000000000004          0.0000000000000000     
  0.11600000000000005          0.0000000000000000     
  0.11900000000000005          0.0000000000000000     
  0.12200000000000005          0.0000000000000000     
  0.12500000000000006          0.0000000000000000     
  0.12800000000000006          0.0000000000000000     
  0.13100000000000006          0.0000000000000000     
  0.13400000000000006         -3.4341972552034258E-042
  0.13700000000000007          1.1375708780259420E-041
  0.14000000000000007          1.4975256822488268E-041
  0.14300000000000007         -1.4481733148599035E-041
  0.14600000000000007         -5.4350936467357275E-041
  0.14900000000000008          4.0562129232937860E-041
  0.15200000000000008          2.5871818735481201E-041
  0.15500000000000008          7.9780225181544732E-040
  0.15800000000000008          5.9866013649061214E-040
  0.16100000000000009         -1.5600975631671709E-040
  0.16400000000000009         -9.4972990569169256E-040
  0.16700000000000009         -1.6418419324897215E-039
  0.17000000000000010         -2.5229836917797337E-040
  0.17300000000000010          1.1937828493160174E-038
  0.17600000000000010          1.4781700778954636E-038
  0.17899999999999999          1.2663486823773522E-038
  0.18200000000000000         -1.8781136866255273E-039
  0.18500000000000000         -4.0406047066293707E-038
  0.18800000000000000         -6.7162091071954685E-038
  0.19100000000000000         -5.0582497581132282E-038
  0.19400000000000001          3.7041012642431338E-038
  0.19700000000000001          1.8322657453231618E-037
  0.20000000000000001          2.9436636815840317E-037
  0.20300000000000001          2.2306618568136744E-037
  0.20600000000000002         -1.4829775447864499E-037
  0.20900000000000002         -7.6193919796895446E-037
  0.21200000000000002         -1.2691179526468085E-036
  0.21500000000000002         -1.0788021611052880E-036
  0.21800000000000003          3.2533758775751035E-037
  0.22100000000000003          2.8442282226603445E-036
  0.22400000000000003          5.2790824789009346E-036
  0.22700000000000004          5.3735785944211494E-036
  0.23000000000000004          8.0239045392441086E-037
  0.23300000000000004         -8.9132758429933478E-036
  0.23600000000000004         -2.0357207851681536E-035
  0.23900000000000005         -2.5583700841414467E-035
  0.24200000000000005         -1.4571347694279984E-035
  0.24500000000000005          1.8622595120721840E-035
  0.24800000000000005          6.7731996012313013E-035
  0.25100000000000006          1.0872255153822602E-034
  0.25400000000000006          1.0296637859539458E-034
  0.25700000000000006          1.3705155154395131E-035
  0.26000000000000006         -1.6564331779712348E-034
  0.26300000000000007         -3.8213766998385273E-034
  0.26600000000000007         -5.1245819025074044E-034
  0.26900000000000007         -3.9192878765001462E-034
  0.27200000000000008          1.0616262265683964E-034
  0.27500000000000008          9.5592509330855087E-034
  0.27800000000000008          1.8773175014859629E-033
  0.28100000000000008          2.3220056389069392E-033
  0.28400000000000009          1.6183846588490679E-033
  0.28700000000000009         -7.0046867263420665E-034
  0.29000000000000009         -4.4563549598008457E-033
  0.29300000000000009         -8.4579215768977843E-033
  0.29600000000000010         -1.0471450399447710E-032
  0.29900000000000010         -7.7784553114819101E-033
  0.30200000000000010          1.6016956983155498E-033
  0.30499999999999999          1.7265255573106528E-032
  0.30800000000000000          3.4981638879599231E-032
  0.31100000000000000          4.6370579060236446E-032
  0.31400000000000000          4.0594407955060002E-032
  0.31700000000000000          8.4638877753204206E-033
  0.32000000000000001         -5.1639381220165097E-032
  0.32300000000000001         -1.2790310945350541E-031
  0.32600000000000001         -1.9226373221090210E-031
  0.32900000000000001         -2.0388225768470532E-031
  0.33200000000000002         -1.2104959144755169E-031
  0.33500000000000002          7.9117204786089669E-032
  0.33800000000000002          3.7785129439698572E-031
  0.34100000000000003          6.9756739111934646E-031
  0.34400000000000003          9.0153439528280378E-031
  0.34700000000000003          8.2027761310119650E-031
  0.35000000000000003          3.0824948312668859E-031
  0.35300000000000004         -6.7699765300872199E-031
  0.35600000000000004         -1.9948619028547741E-030
  0.35900000000000004         -3.2747894100079617E-030
  0.36200000000000004         -3.9404715148364473E-030
  0.36500000000000005         -3.3339256218722519E-030
  0.36800000000000005         -9.4242503207665915E-031
  0.37100000000000005          3.3087619223996243E-030
  0.37400000000000005          8.7803408220640231E-030
  0.37700000000000006          1.3977782968267331E-029
  0.38000000000000006          1.6670503818654477E-029
  0.38300000000000006          1.4359874756586002E-029
  0.38600000000000007          5.0959941359956549E-030
  0.38900000000000007         -1.1487821018664031E-029
  0.39200000000000007         -3.3198534396015034E-029
  0.39500000000000007         -5.4752972728424474E-029
  0.39800000000000008         -6.8106072550531181E-029
  0.40100000000000008         -6.3939235535512815E-029
  0.40400000000000008         -3.4341609047830833E-029
  0.40700000000000008          2.3683890590183307E-029
  0.41000000000000009          1.0471460192681768E-028
  0.41300000000000009          1.9260277659009723E-028
  0.41600000000000009          2.6071202837681004E-028
  0.41900000000000009          2.7579024140944715E-028
  0.42200000000000010          2.0585901164567696E-028
  0.42500000000000010          3.1357495664433401E-029
  0.42800000000000010         -2.4260815271689925E-028
  0.43100000000000011         -5.7634100265740008E-028
  0.43400000000000000         -8.9212585709993696E-028
  0.43700000000000000         -1.0812075027062911E-027
  0.44000000000000000         -1.0235162825800852E-027
  0.44300000000000000         -6.1955521386398407E-028
  0.44600000000000001          1.7006007664727860E-028
  0.44900000000000001          1.2860589738677881E-027
  0.45200000000000001          2.5448377804668216E-027
  0.45500000000000002          3.6384986156104504E-027
  0.45800000000000002          4.1711338995071885E-027
  0.46100000000000002          3.7355845142363428E-027
  0.46400000000000002          2.0250926185947390E-027
  0.46700000000000003         -1.0377870357729242E-027
  0.47000000000000003         -5.1841447220646911E-027
  0.47300000000000003         -9.7305244379239854E-027
  0.47600000000000003         -1.3597123024222896E-026
  0.47900000000000004         -1.5440558058222874E-026
  0.48200000000000004         -1.3909104700766117E-026
  0.48500000000000004         -7.9988330704822526E-027
  0.48800000000000004          2.5453290411378698E-027
  0.49100000000000005          1.6871293551559710E-026
  0.49400000000000005          3.2811923552673926E-026
  0.49700000000000005          4.6935191491717700E-026
  0.50000000000000000          5.4931964422786261E-026
  0.50300000000000011          5.2364826311481986E-026
  0.50600000000000001          3.5719430861265312E-026
  0.50900000000000012          3.6066908846838975E-027
  0.51200000000000001         -4.2123534671876980E-026
  0.51500000000000012         -9.5654769338478327E-026
  0.51800000000000002         -1.4716559189763593E-025
  0.52100000000000013         -1.8372060849209556E-025
  0.52400000000000002         -1.9119165809172511E-025
  0.52700000000000014         -1.5710439165354725E-025
  0.53000000000000003         -7.4062157133777242E-026
  0.53300000000000014          5.6841319109347235E-026
  0.53600000000000003          2.2338677927392105E-025
  0.53900000000000015          4.0120169377854142E-025
  0.54200000000000004          5.5506692902631473E-025
  0.54500000000000015          6.4299728308999647E-025
  0.54800000000000004          6.2307041691723966E-025
  0.55100000000000016          4.6238189827323042E-025
  0.55400000000000005          1.4688526351673359E-025
  0.55700000000000016         -3.0967486017087785E-025
  0.56000000000000005         -8.5984393863827532E-025
  0.56299999999999994         -1.4216409245284929E-024
  0.56600000000000006         -1.8844810973018442E-024
  0.56899999999999995         -2.1225814632664137E-024
  0.57200000000000006         -2.0153177432839070E-024
  0.57499999999999996         -1.4724858098516929E-024
  0.57800000000000007         -4.6095349300924529E-025
  0.58099999999999996          9.7204192138328498E-025
  0.58400000000000007          2.6842703426412734E-024
  0.58699999999999997          4.4376410043156114E-024
  0.59000000000000008          5.9149438001251746E-024
  0.59299999999999997          6.7557665054494575E-024
  0.59600000000000009          6.6101263991779561E-024
  0.59899999999999998          5.2047797762917859E-024
  0.60200000000000009          2.4137036141812782E-024
  0.60500000000000020         -1.6785694650206068E-024
  0.60800000000000010         -6.7335488510246307E-024
  0.61100000000000021         -1.2147847729251185E-023
  0.61400000000000010         -1.7084634750903295E-023
  0.61700000000000021         -2.0552766670327426E-023
  0.62000000000000011         -2.1532175274890212E-023
  0.62300000000000022         -1.9136268158724233E-023
  0.62600000000000011         -1.2793980319563393E-023
  0.62900000000000000         -2.4269691354801935E-024
  0.63200000000000012          1.1407469697019529E-023
  0.63500000000000001          2.7438329302267209E-023
  0.63800000000000012          4.3695616348087430E-023
  0.64100000000000001          5.7637542953340209E-023
  0.64400000000000013          6.6397827792955450E-023
  0.64700000000000002          6.7144130972868301E-023
  0.65000000000000013          5.7520729793414742E-023
  0.65300000000000002          3.6129648784639874E-023
  0.65600000000000014          2.9888953385428010E-024
  0.65900000000000003         -4.0104412816793415E-023
  0.66200000000000014         -8.9381333415050712E-023
  0.66500000000000004         -1.3914635746222101E-022
  0.66800000000000015         -1.8211213582101185E-022
  0.67100000000000004         -2.1004477652048896E-022
  0.67400000000000015         -2.1470505723226513E-022
  0.67700000000000005         -1.8902442703823830E-022
  0.68000000000000016         -1.2841127976474862E-022
  0.68300000000000005         -3.2038255567702413E-023
  0.68600000000000017          9.6070190832376339E-023
  0.68900000000000006          2.4634588362388535E-022
  0.69200000000000017          4.0357230461028231E-022
  0.69500000000000006          5.4752471184117790E-022
  0.69800000000000018          6.5445184064704179E-022
  0.70100000000000007          6.9940852415669322E-022
  0.70400000000000018          6.5933689822676640E-022
  0.70700000000000007          5.1667199960755525E-022
  0.71000000000000019          2.6312718016741857E-022
  0.71300000000000008         -9.6802142933166602E-023
  0.71600000000000019         -5.4313687428393501E-022
  0.71900000000000008         -1.0390760693498465E-021
  0.72200000000000020         -1.5315241534780005E-021
  0.72500000000000009         -1.9538832647072702E-021
  0.72800000000000020         -2.2313009957494176E-021
  0.73100000000000009         -2.2883077853270423E-021
  0.73400000000000021         -2.0584441970828958E-021
  0.73700000000000010         -1.4951427366898105E-021
  0.74000000000000021         -5.8278243444736869E-022
  0.74300000000000010          6.5343777844663271E-022
  0.74600000000000022          2.1403428875461594E-021
  0.74900000000000011          3.7538927364030781E-021
  0.75200000000000022          5.3219595783572159E-021
  0.75500000000000012          6.6337817759247723E-021
  0.75800000000000001          7.4565465762022882E-021
  0.76100000000000012          7.5587579841644118E-021
  0.76400000000000001          6.7391510841319027E-021
  0.76700000000000013          4.8589734228946063E-021
  0.77000000000000002          1.8744904325854819E-021
  0.77300000000000013         -2.1340828256657689E-021
  0.77600000000000002         -6.9416262005873804E-021
  0.77900000000000014         -1.2169398008118990E-020
  0.78200000000000003         -1.7292555878504026E-020
  0.78500000000000014         -2.1666802404694757E-020
  0.78800000000000003         -2.4575442017722175E-020
  0.79100000000000015         -2.5296281829727776E-020
  0.79400000000000004         -2.3184941225429460E-020
  0.79700000000000015         -1.7769214610489414E-020
  0.80000000000000004         -8.8456720840669652E-021
  0.80300000000000016          3.4316069258407436E-021
  0.80600000000000005          1.8482176719960923E-020
  0.80900000000000016          3.5262804009347240E-020
  0.81200000000000006          5.2274769739235580E-020
  0.81500000000000017          6.7624234327054920E-020
  0.81800000000000006          7.9141301614395132E-020
  0.82100000000000017          8.4557480982890520E-020
  0.82400000000000007          8.1735998076260900E-020
  0.82700000000000018          6.8941027002248117E-020
  0.83000000000000007          4.5125700780177668E-020
  0.83300000000000018          1.0211459794809295E-020
  0.83600000000000008         -3.4673571612734746E-020
  0.83900000000000019         -8.7031917898128207E-020
  0.84200000000000008         -1.4294475879656373E-019
  0.84500000000000020         -1.9716129251630783E-019
  0.84800000000000009         -2.4335145914831025E-019
  0.85100000000000020         -2.7453246435142185E-019
  0.85400000000000009         -2.8366247838079176E-019
  0.85700000000000021         -2.6437690235050986E-019
  0.86000000000000010         -2.1182145499110300E-019
  0.86300000000000021         -1.2351762966851834E-019
  0.86600000000000010         -1.7590100051034549E-022
  0.86900000000000022          1.5363829515379367E-019
  0.87200000000000011          3.2908640618316059E-019
  0.87500000000000022          5.1298615255450805E-019
  0.87800000000000011          6.8817214291203620E-019
  0.88100000000000001          8.3434517091987389E-019
  0.88400000000000012          9.2943253881129995E-019
  0.88700000000000001          9.5143463312880280E-019
  0.89000000000000012          8.8067750506803695E-019
  0.89300000000000002          7.0233524174892693E-019
  0.89600000000000013          4.0902622406342959E-019
  0.89900000000000002          3.2519101533379216E-021
  0.90200000000000014         -5.0061953679805374E-019
  0.90500000000000003         -1.0750887566212946E-018
  0.90800000000000014         -1.6792921402781472E-018
  0.91100000000000003         -2.2600203063460242E-018
  0.91400000000000015         -2.7541714015034125E-018
  0.91700000000000004         -3.0927094454593385E-018
  0.92000000000000015         -3.2060633699525619E-018
  0.92300000000000004         -3.0307548492503208E-018
  0.92600000000000016         -2.5169054898688432E-018
  0.92900000000000005         -1.6360521775128632E-018
  0.93200000000000016         -3.8862993293673387E-019
  0.93500000000000005          1.1896622352278310E-018
  0.93800000000000017          3.0234774774193877E-018
  0.94100000000000006          4.9962036972760644E-018
  0.94400000000000017          6.9518949703894789E-018
  0.94700000000000006          8.7012773069755860E-018
  0.95000000000000018          1.0032166975399287E-017
  0.95300000000000007          1.0724237137333643E-017
  0.95600000000000018          1.0567683764352353E-017
  0.95900000000000007          9.3849292537279856E-018
  0.96200000000000019          7.0539543709618966E-018
  0.96500000000000008          3.5315483531761932E-018
  0.96800000000000019         -1.1257182073359302E-018
  0.97100000000000009         -6.7451143176379825E-018
  0.97400000000000020         -1.3028406636861440E-017
  0.97700000000000009         -1.9551832102328640E-017
  0.98000000000000020         -2.5777298301891177E-017
  0.98300000000000010         -3.1076150605599859E-017
  0.98600000000000021         -3.4765945248745924E-017
  0.98900000000000010         -3.6159647642063225E-017
  0.99200000000000021         -3.4625505216507538E-017
  0.99500000000000011         -2.9654427177322668E-017
  0.99800000000000022         -2.0930672143350344E-017
   1.0010000000000001         -8.4002785681749175E-018
   1.0040000000000002          7.6691932416177087E-018
   1.0070000000000001          2.6644338559697841E-017
   1.0100000000000000          4.7504089463433537E-017
   1.0130000000000001          6.8846579583773455E-017
   1.0160000000000000          8.8930089718911141E-017
   1.0190000000000001          1.0575125578728738E-016
   1.0220000000000000          1.1716135934885675E-016
   1.0250000000000001          1.2101849732458972E-016
   1.0280000000000000          1.1536995975687745E-016
   1.0310000000000001          9.8655549150835730E-017
   1.0340000000000000          6.9919419681153901E-017
   1.0370000000000001          2.9013485237375855E-017
   1.0400000000000000         -2.3224258499965244E-017
   1.0430000000000001         -8.4838404299563160E-017
   1.0460000000000000         -1.5268946055046578E-016
   1.0490000000000002         -2.2247172085433491E-016
   1.0520000000000000         -2.8882924797154307E-016
   1.0550000000000002         -3.4558118077196367E-016
   1.0580000000000001         -3.8605678823444379E-016
   1.0610000000000002         -4.0353874157763758E-016
   1.0640000000000001         -3.9179434504692856E-016
   1.0670000000000002         -3.4567492771223914E-016
   1.0700000000000001         -2.6174463114797282E-016
   1.0730000000000002         -1.3889649011721348E-016
   1.0760000000000001          2.1096563960700128E-017
   1.0790000000000002          2.1314964742252477E-016
   1.0820000000000001          4.2861035362399999E-016
   1.0850000000000002          6.5523556944760901E-016
   1.0880000000000001          8.7743964061911656E-016
   1.0910000000000002          1.0768541040473299E-015
   1.0940000000000001          1.2332075020818424E-015
   1.0970000000000002          1.3255234746009520E-015
