 -0.39999999999999997          0.0000000000000000     
 -0.39699999999999996          0.0000000000000000     
 -0.39399999999999996          0.0000000000000000     
 -0.39099999999999996          0.0000000000000000     
 -0.38799999999999996          0.0000000000000000     
 -0.38499999999999995          0.0000000000000000     
 -0.38199999999999995          0.0000000000000000     
 -0.37899999999999995          0.0000000000000000     
 -0.37599999999999995          0.0000000000000000     
 -0.37299999999999994          0.0000000000000000     
 -0.37000000000000000          0.0000000000000000     
 -0.36699999999999999          0.0000000000000000     
 -0.36399999999999999          0.0000000000000000     
 -0.36099999999999999          0.0000000000000000     
 -0.35799999999999998          0.0000000000000000     
 -0.35499999999999998          0.0000000000000000     
 -0.35199999999999998          0.0000000000000000     
 -0.34899999999999998          0.0000000000000000     
 -0.34599999999999997          0.0000000000000000     
 -0.34299999999999997          0.0000000000000000     
 -0.33999999999999997          0.0000000000000000     
 -0.33699999999999997          0.0000000000000000     
 -0.33399999999999996          0.0000000000000000     
 -0.33099999999999996          0.0000000000000000     
 -0.32799999999999996          0.0000000000000000     
 -0.32499999999999996          0.0000000000000000     
 -0.32199999999999995          0.0000000000000000     
 -0.31899999999999995          0.0000000000000000     
 -0.31599999999999995          0.0000000000000000     
 -0.31299999999999994          0.0000000000000000     
 -0.30999999999999994          0.0000000000000000     
 -0.30699999999999994          0.0000000000000000     
 -0.30399999999999994          0.0000000000000000     
 -0.30099999999999993          0.0000000000000000     
 -0.29799999999999993          0.0000000000000000     
 -0.29499999999999998          0.0000000000000000     
 -0.29199999999999998          0.0000000000000000     
 -0.28899999999999998          0.0000000000000000     
 -0.28599999999999998          0.0000000000000000     
 -0.28299999999999997          0.0000000000000000     
 -0.27999999999999997          0.0000000000000000     
 -0.27699999999999997          0.0000000000000000     
 -0.27399999999999997          0.0000000000000000     
 -0.27099999999999996          0.0000000000000000     
 -0.26799999999999996          0.0000000000000000     
 -0.26499999999999996          0.0000000000000000     
 -0.26199999999999996          0.0000000000000000     
 -0.25899999999999995          0.0000000000000000     
 -0.25599999999999995          0.0000000000000000     
 -0.25300000000000000          0.0000000000000000     
 -0.24999999999999997          0.0000000000000000     
 -0.24699999999999997          0.0000000000000000     
 -0.24399999999999997          0.0000000000000000     
 -0.24099999999999996          0.0000000000000000     
 -0.23799999999999996          0.0000000000000000     
 -0.23499999999999996          0.0000000000000000     
 -0.23199999999999996          0.0000000000000000     
 -0.22899999999999995          0.0000000000000000     
 -0.22599999999999995          0.0000000000000000     
 -0.22299999999999998          0.0000000000000000     
 -0.21999999999999997          0.0000000000000000     
 -0.21699999999999997          0.0000000000000000     
 -0.21399999999999997          0.0000000000000000     
 -0.21099999999999997          0.0000000000000000     
 -0.20799999999999996         -2.3261213825380202E-042
 -0.20499999999999996         -2.6621813841689080E-042
 -0.20199999999999996          1.6521484413580964E-040
 -0.19899999999999995          7.2007794028763048E-043
 -0.19599999999999995         -4.9977853853817273E-040
 -0.19299999999999995          1.6402362545968292E-040
 -0.18999999999999997          1.5297906303226327E-039
 -0.18699999999999997         -1.1900539212299179E-039
 -0.18399999999999997         -4.1992893678434471E-039
 -0.18099999999999997          2.6930882732814902E-039
 -0.17799999999999996          1.2208639411732680E-038
 -0.17499999999999996          1.1147117020984197E-038
 -0.17199999999999996         -2.9951231755080299E-038
 -0.16899999999999996         -2.9822739174870639E-038
 -0.16599999999999995          3.2157695067578093E-038
 -0.16299999999999995          7.4831426207629784E-038
 -0.15999999999999998          1.7603556599916800E-038
 -0.15699999999999997         -1.1538609425430301E-037
 -0.15399999999999997         -2.8412493368241592E-037
 -0.15099999999999997         -8.9499439593767875E-038
 -0.14799999999999996          1.0194487191623568E-036
 -0.14499999999999996          1.4866201657099183E-036
 -0.14199999999999996         -1.9526936172437257E-036
 -0.13899999999999996         -6.3434116571699154E-036
 -0.13599999999999995         -3.0597476487454125E-037
 -0.13299999999999995          1.6641210485440110E-035
 -0.12999999999999995          1.7842884804128857E-035
 -0.12699999999999995         -2.1960176517432846E-035
 -0.12399999999999994         -7.1802012929170680E-035
 -0.12099999999999994         -3.6087399922927671E-035
 -0.11799999999999994          1.4585840767878224E-034
 -0.11499999999999994          3.0181444420718662E-034
 -0.11199999999999993         -2.5222414655341114E-036
 -0.10899999999999999         -8.5568344850353243E-034
 -0.10599999999999998         -1.1213053554621027E-033
 -0.10299999999999998          8.5825536620793248E-034
  -9.9999999999999978E-002     4.1306416900569100E-033
  -9.6999999999999975E-002     3.2783665269888808E-033
  -9.3999999999999972E-002    -6.3296171532600584E-033
  -9.0999999999999970E-002    -1.7414484979142819E-032
  -8.7999999999999967E-002    -8.1446056947428586E-033
  -8.4999999999999964E-002     3.4047909712008819E-032
  -8.1999999999999962E-002     7.0714549834541596E-032
  -7.8999999999999959E-002     1.3653946504297832E-032
  -7.5999999999999956E-002    -1.6433758092511780E-031
  -7.2999999999999954E-002    -2.7642056891758481E-031
  -6.9999999999999951E-002     1.4232237597349132E-032
  -6.6999999999999948E-002     7.2712274121652189E-031
  -6.3999999999999946E-002     1.0546686402996623E-030
  -6.0999999999999943E-002    -2.4544022195076778E-031
  -5.7999999999999940E-002    -3.0354833742604094E-030
  -5.4999999999999938E-002    -4.0407593063145553E-030
  -5.1999999999999935E-002     1.3669385669549574E-030
  -4.8999999999999932E-002     1.2196732214949140E-029
  -4.5999999999999985E-002     1.5629346168874867E-029
  -4.2999999999999983E-002    -5.6078925072679542E-030
  -3.9999999999999980E-002    -4.7231217028779585E-029
  -3.6999999999999977E-002    -6.1141632152292117E-029
  -3.3999999999999975E-002     1.7524358760268239E-029
  -3.0999999999999972E-002     1.7619955341234707E-028
  -2.7999999999999969E-002     2.4130586708692225E-028
  -2.4999999999999967E-002    -3.2877069947891127E-029
  -2.1999999999999964E-002    -6.2998551512189396E-028
  -1.8999999999999961E-002    -9.4931134547915718E-028
  -1.5999999999999959E-002    -6.4111831170060113E-029
  -1.2999999999999956E-002     2.1299930188993033E-027
  -9.9999999999999534E-003     3.6678432154607047E-027
  -6.9999999999999507E-003     1.1141947805572698E-027
  -3.9999999999999480E-003    -6.6576633267364655E-027
  -9.9999999999994538E-004    -1.3695706270944897E-026
   2.0000000000000573E-003    -7.6636128227955905E-027
   5.0000000000000600E-003     1.8421308344071094E-026
   8.0000000000000626E-003     4.8533489414269697E-026
   1.1000000000000065E-002     4.0510520525007126E-026
   1.4000000000000068E-002    -4.0454276901665706E-026
   1.7000000000000015E-002    -1.5971487137870545E-025
   2.0000000000000018E-002    -1.8291024591924062E-025
   2.3000000000000020E-002     4.0462817189932114E-026
   2.6000000000000023E-002     4.7299284462559785E-025
   2.9000000000000026E-002     7.2685894578880774E-025
   3.2000000000000028E-002     2.2463845051481092E-025
   3.5000000000000031E-002    -1.1880773973939299E-024
   3.8000000000000034E-002    -2.5495023982301942E-024
   4.1000000000000036E-002    -1.8909265372479448E-024
   4.4000000000000039E-002     2.1406245210301910E-024
   4.7000000000000042E-002     7.7598120568986320E-024
   5.0000000000000044E-002     9.0905909058248545E-024
   5.3000000000000047E-002    -3.0870217765270502E-025
   5.6000000000000050E-002    -1.9509930871410778E-023
   5.9000000000000052E-002    -3.3779293014985666E-023
   6.2000000000000055E-002    -1.9474968259647236E-023
   6.5000000000000058E-002     3.4751703044186745E-023
   6.8000000000000060E-002     1.0130115020270286E-022
   7.1000000000000063E-002     1.0956645665931443E-022
   7.4000000000000066E-002    -8.9354906322072622E-024
   7.7000000000000068E-002    -2.3499434154875963E-022
   8.0000000000000016E-002    -4.0136798387259640E-022
   8.3000000000000018E-002    -2.5281707624451288E-022
   8.6000000000000021E-002     3.3525607873366896E-022
   8.9000000000000024E-002     1.0925717021664471E-021
   9.2000000000000026E-002     1.3081221572940184E-021
   9.5000000000000029E-002     2.4444378647110362E-022
   9.8000000000000032E-002    -2.0597193428938977E-021
  0.10100000000000003         -4.1617676779709695E-021
  0.10400000000000004         -3.5962503546027738E-021
  0.10700000000000004          1.3229110639702895E-021
  0.11000000000000004          9.0622078663039859E-021
  0.11300000000000004          1.3862992577527693E-020
  0.11600000000000005          8.3402945971654339E-021
  0.11900000000000005         -1.0222537344941978E-020
  0.12200000000000005         -3.3495797680818584E-020
  0.12500000000000006         -4.1990278572700964E-020
  0.12800000000000006         -1.5906860340059230E-020
  0.13100000000000006          4.5786997810830003E-020
  0.13400000000000006          1.1067002679842980E-019
  0.13700000000000007          1.1963402474042212E-019
  0.14000000000000007          2.3414371764785992E-020
  0.14300000000000007         -1.6499855692084410E-019
  0.14600000000000007         -3.3950587880130406E-019
  0.14900000000000008         -3.3338196985389300E-019
  0.15200000000000008         -2.6592385171737547E-020
  0.15500000000000008          5.1901636673630510E-019
  0.15800000000000008          9.9561366409823872E-019
  0.16100000000000009          9.5300937737899119E-019
  0.16400000000000009          8.2545552421064088E-020
  0.16700000000000009         -1.4458785460262762E-018
  0.17000000000000010         -2.8317685118857301E-018
  0.17300000000000010         -2.8957368258845638E-018
  0.17600000000000010         -7.5727053225066755E-019
  0.17899999999999999          3.3449103547211602E-018
  0.18200000000000000          7.6110614056462397E-018
  0.18500000000000000          9.1085473727526881E-018
  0.18800000000000000          5.1800873119337080E-018
  0.19100000000000000         -4.6629863737239212E-018
  0.19400000000000001         -1.7365924185385269E-017
  0.19700000000000001         -2.6534419577747415E-017
  0.20000000000000001         -2.4709970550484739E-017
  0.20300000000000001         -7.1835027731515347E-018
  0.20600000000000002          2.4207743020923516E-017
  0.20900000000000002          5.9310511474061855E-017
  0.21200000000000002          8.1471272187085146E-017
  0.21500000000000002          7.3182497783114088E-017
  0.21800000000000003          2.4104822616600948E-017
  0.22100000000000003         -6.1410230087131145E-017
  0.22400000000000003         -1.6069023381318868E-016
  0.22700000000000004         -2.3568975309374458E-016
  0.23000000000000004         -2.4330717804424758E-016
  0.23300000000000004         -1.5120185726539926E-016
  0.23600000000000004          4.5411719073835999E-017
  0.23900000000000005          3.1220683982464147E-016
  0.24200000000000005          5.7541718768882126E-016
  0.24500000000000005          7.3609528895290916E-016
  0.24800000000000005          6.9762858706250929E-016
  0.25100000000000006          3.9991460409938273E-016
  0.25400000000000006         -1.5025223676345242E-016
  0.25700000000000006         -8.6350557575599529E-016
  0.26000000000000006         -1.5744111371515271E-015
  0.26300000000000007         -2.0712955062048927E-015
  0.26600000000000007         -2.1437782675029604E-015
  0.26900000000000007         -1.6376162324355921E-015
  0.27200000000000008         -5.0492543206991692E-016
  0.27500000000000008          1.1608299789571389E-015
  0.27800000000000008          3.1130467331152099E-015
  0.28100000000000008          4.9687785599510028E-015
  0.28400000000000009          6.2566109623907261E-015
  0.28700000000000009          6.4944400186069165E-015
  0.29000000000000009          5.2900086643541978E-015
  0.29300000000000009          2.4497384232748974E-015
  0.29600000000000010         -1.9251162872812523E-015
  0.29900000000000010         -7.3787482488207387E-015
  0.30200000000000010         -1.3098382937068048E-014
  0.30499999999999999         -1.7981750969979762E-014
  0.30800000000000000         -2.0775214165677846E-014
  0.31100000000000000         -2.0271840645858783E-014
  0.31400000000000000         -1.5547662705482251E-014
  0.31700000000000000         -6.2052203742916370E-015
  0.32000000000000001          7.4144523742831755E-015
  0.32300000000000001          2.4094043749103413E-014
  0.32600000000000001          4.1719048126134181E-014
  0.32900000000000001          5.7406674690692061E-014
  0.33200000000000002          6.7798199432746438E-014
  0.33500000000000002          6.9503588803456149E-014
  0.33800000000000002          5.9658026353949049E-014
  0.34100000000000003          3.6524659625458244E-014
  0.34400000000000003          5.9154363864569018E-017
  0.34700000000000003         -4.7658952400298551E-014
  0.35000000000000003         -1.0222118183087637E-013
  0.35300000000000004         -1.5698984006432978E-013
  0.35600000000000004         -2.0355430767013713E-013
  0.35900000000000004         -2.3254985972981966E-013
  0.36200000000000004         -2.3479588401637097E-013
  0.36500000000000005         -2.0265112715290894E-013
  0.36800000000000005         -1.3144672614833057E-013
  0.37100000000000005         -2.0812160963870168E-014
  0.37400000000000005          1.2428831262763273E-013
  0.37700000000000006          2.9300044231169616E-013
  0.38000000000000006          4.6866072119937333E-013
  0.38300000000000006          6.2963046073897961E-013
  0.38600000000000007          7.5092561755992934E-013
  0.38900000000000007          8.0659898987215936E-013
  0.39200000000000007          7.7273382958019232E-013
  0.39500000000000007          6.3079883590198726E-013
  0.39800000000000008          3.7105249847403605E-013
  0.40100000000000008         -4.3923886715854540E-015
  0.40400000000000008         -4.7925533727548645E-013
  0.40700000000000008         -1.0219131023168354E-012
  0.41000000000000009         -1.5857049750280511E-012
  0.41300000000000009         -2.1109448639067825E-012
  0.41600000000000009         -2.5287509902655910E-012
  0.41900000000000009         -2.7665865045038072E-012
  0.42200000000000010         -2.7552165850131058E-012
  0.42500000000000010         -2.4366242049194323E-012
  0.42800000000000010         -1.7722259179915445E-012
  0.43100000000000011         -7.5059648850233514E-013
  0.43400000000000000          6.0610829587497656E-013
  0.43700000000000000          2.2379570382312707E-012
  0.44000000000000000          4.0460016540686289E-012
  0.44300000000000000          5.8946506328024584E-012
  0.44600000000000001          7.6180271963298679E-012
  0.44900000000000001          9.0303428349696106E-012
  0.45200000000000001          9.9399794311133465E-012
  0.45500000000000002          1.0166520304697182E-011
  0.45800000000000002          9.5600197851802570E-012
  0.46100000000000002          8.0205992975863875E-012
  0.46400000000000002          5.5174516499291717E-012
  0.46700000000000003          2.1051109966607877E-012
  0.47000000000000003         -2.0647780903894284E-012
  0.47300000000000003         -6.7373391496293314E-012
  0.47600000000000003         -1.1556219797343521E-011
  0.47900000000000004         -1.6073059883274558E-011
  0.48200000000000004         -1.9766295151479922E-011
  0.48500000000000004         -2.2068256919178573E-011
  0.48800000000000004         -2.2400247519699874E-011
  0.49100000000000005         -2.0214086131444131E-011
  0.49400000000000005         -1.5038158215329851E-011
  0.49700000000000005         -6.5256851567263729E-012
  0.50000000000000000          5.4978625745608665E-012
  0.50300000000000011          2.0990782251958836E-011
  0.50600000000000001          3.9657362510745892E-011
  0.50900000000000012          6.0919481690224886E-011
  0.51200000000000001          8.3898465795660031E-011
  0.51500000000000012          1.0740937484597013E-010
  0.51800000000000002          1.2996779489071604E-010
  0.52100000000000013          1.4980822182557671E-010
  0.52400000000000002          1.6491279126443265E-010
  0.52700000000000014          1.7304703806367729E-010
  0.53000000000000003          1.7179769617090878E-010
  0.53300000000000014          1.5861390999739994E-010
  0.53600000000000003          1.3083550923632591E-010
  0.53900000000000015          8.5712434530934436E-011
  0.54200000000000004          2.0409436864107514E-011
  0.54500000000000015         -6.8020561241319651E-011
  0.54800000000000004         -1.8268322798752318E-010
  0.55100000000000016         -3.2692916189517336E-010
  0.55400000000000005         -5.0447580183008376E-010
  0.55700000000000016         -7.1956475702897430E-010
  0.56000000000000005         -9.7716636852933967E-010
  0.56299999999999994         -1.2832222961697461E-009
  0.56600000000000006         -1.6449323151335914E-009
  0.56899999999999995         -2.0710698620624390E-009
  0.57200000000000006         -2.5723603689492852E-009
  0.57499999999999996         -3.1618775434340892E-009
  0.57800000000000007         -3.8554533528160382E-009
  0.58099999999999996         -4.6721817319555773E-009
  0.58400000000000007         -5.6349153929009069E-009
  0.58699999999999997         -6.7707837280652253E-009
  0.59000000000000008         -8.1117640185600678E-009
  0.59299999999999997         -9.6953139855488992E-009
  0.59600000000000009         -1.1565051340484823E-008
  0.59899999999999998         -1.3771394022803845E-008
  0.60200000000000009         -1.6372380321039855E-008
  0.60500000000000020         -1.9434560582206647E-008
  0.60800000000000010         -2.3033736945711678E-008
  0.61100000000000021         -2.7256066439357072E-008
  0.61400000000000010         -3.2199309708282530E-008
  0.61700000000000021         -3.7973621014756420E-008
  0.62000000000000011         -4.4703486949084399E-008
  0.62300000000000022         -5.2528266375518403E-008
  0.62600000000000011         -6.1604620987581481E-008
  0.62900000000000000         -7.2107647519819623E-008
  0.63200000000000012         -8.4232380212517031E-008
  0.63500000000000001         -9.8196363158453085E-008
  0.63800000000000012         -1.1424059698777813E-007
  0.64100000000000001         -1.3263274511048319E-007
  0.64400000000000013         -1.5366740781868396E-007
  0.64700000000000002         -1.7766996627408251E-007
  0.65000000000000013         -2.0499709173075036E-007
  0.65300000000000002         -2.3603989067969467E-007
  0.65600000000000014         -2.7122316211824993E-007
  0.65900000000000003         -3.1100987954685380E-007
  0.66200000000000014         -3.5590247645432416E-007
  0.66500000000000004         -4.0644156670794076E-007
  0.66800000000000015         -4.6320763120578773E-007
  0.67100000000000004         -5.2682049008154321E-007
  0.67400000000000015         -5.9794499984142273E-007
  0.67700000000000005         -6.7727729206110015E-007
  0.68000000000000016         -7.6555991031554664E-007
  0.68300000000000005         -8.6357015301376071E-007
  0.68600000000000017         -9.7211603456835563E-007
  0.68900000000000006         -1.0920309714821063E-006
  0.69200000000000017         -1.2241826136906997E-006
  0.69500000000000006         -1.3694470818437723E-006
  0.69800000000000018         -1.5287276340386577E-006
  0.70100000000000007         -1.7029126349273993E-006
  0.70400000000000018         -1.8929077820630448E-006
  0.70700000000000007         -2.0995723757176152E-006
  0.71000000000000019         -2.3237714076475743E-006
  0.71300000000000008         -2.5662970459536368E-006
  0.71600000000000019         -2.8279095208704715E-006
  0.71900000000000008         -3.1092951164194644E-006
  0.72200000000000020         -3.4110259600773978E-006
  0.72500000000000009         -3.7335779692816136E-006
  0.72800000000000020         -4.0773138085879950E-006
  0.73100000000000009         -4.4424254728420491E-006
  0.73400000000000021         -4.8289542541739502E-006
  0.73700000000000010         -5.2366994811558917E-006
  0.74000000000000021         -5.6653168652592178E-006
  0.74300000000000010         -6.1141108306245828E-006
  0.74600000000000022         -6.5822283962399284E-006
  0.74900000000000011         -7.0684672439485770E-006
  0.75200000000000022         -7.5713276534646256E-006
  0.75500000000000012         -8.0890224631250287E-006
  0.75800000000000001         -8.6192819301791484E-006
  0.76100000000000012         -9.1595637605911970E-006
  0.76400000000000001         -9.7070282744591599E-006
  0.76700000000000013         -1.0258250144307422E-005
  0.77000000000000002         -1.0809513335200627E-005
  0.77300000000000013         -1.1356735774922485E-005
  0.77600000000000002         -1.1895321154512156E-005
  0.77900000000000014         -1.2420297681560382E-005
  0.78200000000000003         -1.2926393830167670E-005
  0.78500000000000014         -1.3407991753325973E-005
  0.78800000000000003         -1.3859094288486043E-005
  0.79100000000000015         -1.4273187744776645E-005
  0.79400000000000004         -1.4643841262172454E-005
  0.79700000000000015         -1.4964340461937703E-005
  0.80000000000000004         -1.5227443052997236E-005
  0.80300000000000016         -1.5426280974589560E-005
  0.80600000000000005         -1.5553662170472248E-005
  0.80900000000000016         -1.5602581735245117E-005
  0.81200000000000006         -1.5565987750277947E-005
  0.81500000000000017         -1.5437209798798077E-005
  0.81800000000000006         -1.5209804359581470E-005
  0.82100000000000017         -1.4877541083520244E-005
  0.82400000000000007         -1.4434968810029228E-005
  0.82700000000000018         -1.3877157637388306E-005
  0.83000000000000007         -1.3199493913343930E-005
  0.83300000000000018         -1.2398743823916622E-005
  0.83600000000000008         -1.1471840652313232E-005
  0.83900000000000019         -1.0417454053300928E-005
  0.84200000000000008         -9.2348682609332998E-006
  0.84500000000000020         -7.9243264275354764E-006
  0.84800000000000009         -6.4873319529693356E-006
  0.85100000000000020         -4.9271400394529931E-006
  0.85400000000000009         -3.2479737811191849E-006
  0.85700000000000021         -1.4549724495330132E-006
  0.86000000000000010          4.4476731884367435E-007
  0.86300000000000021          2.4428701317582674E-006
  0.86600000000000010          4.5299093669583931E-006
  0.86900000000000022          6.6953393595925743E-006
  0.87200000000000011          8.9263769377759231E-006
  0.87500000000000022          1.1209926808277933E-005
  0.87800000000000011          1.3531534461680709E-005
  0.88100000000000001          1.5876106820137210E-005
  0.88400000000000012          1.8226720288167545E-005
  0.88700000000000001          2.0566629390618890E-005
  0.89000000000000012          2.2878045486405692E-005
  0.89300000000000002          2.5142654137887036E-005
  0.89600000000000013          2.7342280440956756E-005
  0.89900000000000002          2.9458202617470282E-005
  0.90200000000000014          3.1472375996926383E-005
  0.90500000000000003          3.3366511883938589E-005
  0.90800000000000014          3.5123153978834399E-005
  0.91100000000000003          3.6725564751532701E-005
  0.91400000000000015          3.8157877394330991E-005
  0.91700000000000004          3.9405180918611431E-005
  0.92000000000000015          4.0454208702074607E-005
  0.92300000000000004          4.1293019101709065E-005
  0.92600000000000016          4.1911305313133823E-005
  0.92900000000000005          4.2300386011940130E-005
  0.93200000000000016          4.2453675992414546E-005
  0.93500000000000005          4.2366651356736404E-005
  0.93800000000000017          4.2036703386940343E-005
  0.94100000000000006          4.1463292077463824E-005
  0.94400000000000017          4.0648443004588181E-005
  0.94700000000000006          3.9596123686293729E-005
  0.95000000000000018          3.8312259599316390E-005
  0.95300000000000007          3.6805277446339399E-005
  0.95600000000000018          3.5085488296564966E-005
  0.95900000000000007          3.3165008336518201E-005
  0.96200000000000019          3.1057762659568797E-005
  0.96500000000000008          2.8779691999020786E-005
  0.96800000000000019          2.6347940014102138E-005
  0.97100000000000009          2.3780681940655162E-005
  0.97400000000000020          2.1098091738792246E-005
  0.97700000000000009          1.8320356212357480E-005
  0.98000000000000020          1.5468847463008316E-005
  0.98300000000000010          1.2565243111582029E-005
  0.98600000000000021          9.6312863730439000E-006
  0.98900000000000010          6.6887093806851283E-006
  0.99200000000000021          3.7595330314882385E-006
  0.99500000000000011          8.6466646401101276E-007
  0.99800000000000022         -1.9751683174785985E-006
   1.0010000000000001         -4.7406093061719939E-006
   1.0040000000000002         -7.4130813384311195E-006
   1.0070000000000001         -9.9751443656754354E-006
   1.0100000000000000         -1.2411060526990768E-005
   1.0130000000000001         -1.4706320775951963E-005
   1.0160000000000000         -1.6848580011739753E-005
   1.0190000000000001         -1.8826266075627296E-005
   1.0220000000000000         -2.0630499478101786E-005
   1.0250000000000001         -2.2253985238072829E-005
   1.0280000000000000         -2.3691169320312058E-005
   1.0310000000000001         -2.4938039259429143E-005
   1.0340000000000000         -2.5992890920059567E-005
   1.0370000000000001         -2.6856019658901956E-005
   1.0400000000000000         -2.7528492859415038E-005
   1.0430000000000001         -2.8013432308767364E-005
   1.0460000000000000         -2.8316036991409821E-005
   1.0490000000000002         -2.8442423592234717E-005
   1.0520000000000000         -2.8399668799837109E-005
   1.0550000000000002         -2.8196352924349016E-005
   1.0580000000000001         -2.7842229572873090E-005
   1.0610000000000002         -2.7347423678265473E-005
   1.0640000000000001         -2.6723040704930767E-005
   1.0670000000000002         -2.5980937866052020E-005
   1.0700000000000001         -2.5132933187816835E-005
   1.0730000000000002         -2.4191242223007513E-005
   1.0760000000000001         -2.3168229724711590E-005
   1.0790000000000002         -2.2076325491230235E-005
   1.0820000000000001         -2.0927608466461567E-005
   1.0850000000000002         -1.9734004359945172E-005
   1.0880000000000001         -1.8507166397515406E-005
   1.0910000000000002         -1.7258212855583145E-005
   1.0940000000000001         -1.5997527615522594E-005
   1.0970000000000002         -1.4734949891596446E-005
