 -0.39999999999999997          0.0000000000000000     
 -0.39699999999999996          0.0000000000000000     
 -0.39399999999999996          0.0000000000000000     
 -0.39099999999999996          0.0000000000000000     
 -0.38799999999999996          0.0000000000000000     
 -0.38499999999999995          0.0000000000000000     
 -0.38199999999999995          0.0000000000000000     
 -0.37899999999999995          0.0000000000000000     
 -0.37599999999999995          0.0000000000000000     
 -0.37299999999999994          0.0000000000000000     
 -0.37000000000000000          0.0000000000000000     
 -0.36699999999999999          0.0000000000000000     
 -0.36399999999999999          0.0000000000000000     
 -0.36099999999999999          0.0000000000000000     
 -0.35799999999999998          0.0000000000000000     
 -0.35499999999999998          0.0000000000000000     
 -0.35199999999999998          0.0000000000000000     
 -0.34899999999999998          0.0000000000000000     
 -0.34599999999999997          0.0000000000000000     
 -0.34299999999999997          0.0000000000000000     
 -0.33999999999999997          0.0000000000000000     
 -0.33699999999999997          0.0000000000000000     
 -0.33399999999999996          0.0000000000000000     
 -0.33099999999999996          0.0000000000000000     
 -0.32799999999999996          0.0000000000000000     
 -0.32499999999999996          0.0000000000000000     
 -0.32199999999999995          0.0000000000000000     
 -0.31899999999999995          0.0000000000000000     
 -0.31599999999999995          0.0000000000000000     
 -0.31299999999999994          0.0000000000000000     
 -0.30999999999999994          0.0000000000000000     
 -0.30699999999999994          0.0000000000000000     
 -0.30399999999999994          0.0000000000000000     
 -0.30099999999999993          0.0000000000000000     
 -0.29799999999999993          0.0000000000000000     
 -0.29499999999999998          0.0000000000000000     
 -0.29199999999999998          0.0000000000000000     
 -0.28899999999999998          0.0000000000000000     
 -0.28599999999999998          0.0000000000000000     
 -0.28299999999999997          0.0000000000000000     
 -0.27999999999999997          0.0000000000000000     
 -0.27699999999999997          0.0000000000000000     
 -0.27399999999999997          0.0000000000000000     
 -0.27099999999999996          0.0000000000000000     
 -0.26799999999999996          0.0000000000000000     
 -0.26499999999999996          0.0000000000000000     
 -0.26199999999999996          0.0000000000000000     
 -0.25899999999999995          0.0000000000000000     
 -0.25599999999999995          0.0000000000000000     
 -0.25300000000000000          0.0000000000000000     
 -0.24999999999999997          0.0000000000000000     
 -0.24699999999999997          0.0000000000000000     
 -0.24399999999999997          0.0000000000000000     
 -0.24099999999999996          0.0000000000000000     
 -0.23799999999999996          0.0000000000000000     
 -0.23499999999999996          0.0000000000000000     
 -0.23199999999999996          0.0000000000000000     
 -0.22899999999999995          0.0000000000000000     
 -0.22599999999999995          0.0000000000000000     
 -0.22299999999999998          0.0000000000000000     
 -0.21999999999999997          0.0000000000000000     
 -0.21699999999999997          0.0000000000000000     
 -0.21399999999999997          0.0000000000000000     
 -0.21099999999999997          0.0000000000000000     
 -0.20799999999999996          0.0000000000000000     
 -0.20499999999999996          0.0000000000000000     
 -0.20199999999999996          0.0000000000000000     
 -0.19899999999999995          0.0000000000000000     
 -0.19599999999999995          0.0000000000000000     
 -0.19299999999999995          0.0000000000000000     
 -0.18999999999999997          0.0000000000000000     
 -0.18699999999999997          0.0000000000000000     
 -0.18399999999999997          0.0000000000000000     
 -0.18099999999999997          0.0000000000000000     
 -0.17799999999999996          0.0000000000000000     
 -0.17499999999999996          0.0000000000000000     
 -0.17199999999999996          0.0000000000000000     
 -0.16899999999999996          0.0000000000000000     
 -0.16599999999999995          0.0000000000000000     
 -0.16299999999999995          0.0000000000000000     
 -0.15999999999999998          0.0000000000000000     
 -0.15699999999999997          0.0000000000000000     
 -0.15399999999999997          0.0000000000000000     
 -0.15099999999999997          0.0000000000000000     
 -0.14799999999999996          0.0000000000000000     
 -0.14499999999999996          0.0000000000000000     
 -0.14199999999999996          0.0000000000000000     
 -0.13899999999999996          0.0000000000000000     
 -0.13599999999999995          0.0000000000000000     
 -0.13299999999999995          0.0000000000000000     
 -0.12999999999999995          0.0000000000000000     
 -0.12699999999999995          0.0000000000000000     
 -0.12399999999999994          0.0000000000000000     
 -0.12099999999999994          0.0000000000000000     
 -0.11799999999999994          0.0000000000000000     
 -0.11499999999999994          0.0000000000000000     
 -0.11199999999999993          0.0000000000000000     
 -0.10899999999999999          0.0000000000000000     
 -0.10599999999999998          0.0000000000000000     
 -0.10299999999999998          0.0000000000000000     
  -9.9999999999999978E-002     0.0000000000000000     
  -9.6999999999999975E-002     0.0000000000000000     
  -9.3999999999999972E-002     0.0000000000000000     
  -9.0999999999999970E-002     0.0000000000000000     
  -8.7999999999999967E-002     0.0000000000000000     
  -8.4999999999999964E-002     0.0000000000000000     
  -8.1999999999999962E-002     0.0000000000000000     
  -7.8999999999999959E-002     0.0000000000000000     
  -7.5999999999999956E-002     0.0000000000000000     
  -7.2999999999999954E-002     0.0000000000000000     
  -6.9999999999999951E-002     0.0000000000000000     
  -6.6999999999999948E-002     0.0000000000000000     
  -6.3999999999999946E-002     0.0000000000000000     
  -6.0999999999999943E-002     0.0000000000000000     
  -5.7999999999999940E-002     0.0000000000000000     
  -5.4999999999999938E-002     0.0000000000000000     
  -5.1999999999999935E-002     0.0000000000000000     
  -4.8999999999999932E-002     0.0000000000000000     
  -4.5999999999999985E-002     0.0000000000000000     
  -4.2999999999999983E-002     0.0000000000000000     
  -3.9999999999999980E-002     0.0000000000000000     
  -3.6999999999999977E-002     0.0000000000000000     
  -3.3999999999999975E-002     0.0000000000000000     
  -3.0999999999999972E-002     0.0000000000000000     
  -2.7999999999999969E-002     0.0000000000000000     
  -2.4999999999999967E-002     0.0000000000000000     
  -2.1999999999999964E-002     0.0000000000000000     
  -1.8999999999999961E-002     0.0000000000000000     
  -1.5999999999999959E-002     0.0000000000000000     
  -1.2999999999999956E-002     0.0000000000000000     
  -9.9999999999999534E-003     0.0000000000000000     
  -6.9999999999999507E-003     0.0000000000000000     
  -3.9999999999999480E-003     0.0000000000000000     
  -9.9999999999994538E-004     0.0000000000000000     
   2.0000000000000573E-003     0.0000000000000000     
   5.0000000000000600E-003     0.0000000000000000     
   8.0000000000000626E-003     0.0000000000000000     
   1.1000000000000065E-002     0.0000000000000000     
   1.4000000000000068E-002     0.0000000000000000     
   1.7000000000000015E-002     0.0000000000000000     
   2.0000000000000018E-002     0.0000000000000000     
   2.3000000000000020E-002     0.0000000000000000     
   2.6000000000000023E-002     0.0000000000000000     
   2.9000000000000026E-002     0.0000000000000000     
   3.2000000000000028E-002     0.0000000000000000     
   3.5000000000000031E-002     0.0000000000000000     
   3.8000000000000034E-002     0.0000000000000000     
   4.1000000000000036E-002     0.0000000000000000     
   4.4000000000000039E-002     0.0000000000000000     
   4.7000000000000042E-002     0.0000000000000000     
   5.0000000000000044E-002     0.0000000000000000     
   5.3000000000000047E-002     0.0000000000000000     
   5.6000000000000050E-002     0.0000000000000000     
   5.9000000000000052E-002     0.0000000000000000     
   6.2000000000000055E-002     9.9795375393680295E-042
   6.5000000000000058E-002    -9.8174206986471587E-042
   6.8000000000000060E-002    -4.4065042029968695E-041
   7.1000000000000063E-002    -3.8829261065357114E-041
   7.4000000000000066E-002     1.1911307849762865E-040
   7.7000000000000068E-002     1.7279067738289436E-040
   8.0000000000000016E-002    -1.5686510333970287E-040
   8.3000000000000018E-002    -1.6876914278151490E-039
   8.6000000000000021E-002    -1.1219086782725193E-039
   8.9000000000000024E-002    -1.5751772127517863E-039
   9.2000000000000026E-002     1.3779996780145588E-039
   9.5000000000000029E-002     7.3157535243615590E-041
   9.8000000000000032E-002    -1.5564627609292528E-039
  0.10100000000000003         -3.6526541561190210E-039
  0.10400000000000004         -3.1304562878711141E-038
  0.10700000000000004         -3.4992121494584484E-038
  0.11000000000000004          1.0957875583286086E-038
  0.11300000000000004          9.5480865984729147E-038
  0.11600000000000005          1.6353215396658695E-037
  0.11900000000000005          9.1132873013613529E-038
  0.12200000000000005         -2.0079729266013950E-037
  0.12500000000000006         -5.9086886506239089E-037
  0.12800000000000006         -6.7549513024931275E-037
  0.13100000000000006          3.6629262972856308E-038
  0.13400000000000006          1.5857358511808735E-036
  0.13700000000000007          2.9747872659372427E-036
  0.14000000000000007          2.2271537754240774E-036
  0.14300000000000007         -2.2572295892589523E-036
  0.14600000000000007         -9.2776217458669783E-036
  0.14900000000000008         -1.3125475113404270E-035
  0.15200000000000008         -5.4371196646545160E-036
  0.15500000000000008          1.7757831971762708E-035
  0.15800000000000008          4.6522767799924338E-035
  0.16100000000000009          5.3444135929561179E-035
  0.16400000000000009          6.2650313590470522E-036
  0.16700000000000009         -1.0081210153024972E-034
  0.17000000000000010         -2.1285339033196619E-034
  0.17300000000000010         -2.1135891653180190E-034
  0.17600000000000010          2.2954223795034615E-035
  0.17899999999999999          4.8399434209742360E-034
  0.18200000000000000          9.2092823191386248E-034
  0.18500000000000000          8.5434190983858680E-034
  0.18800000000000000         -1.6099533731665796E-034
  0.19100000000000000         -2.0585058668809000E-033
  0.19400000000000001         -3.8361640874867245E-033
  0.19700000000000001         -3.6412746023159026E-033
  0.20000000000000001          2.6365788557954988E-034
  0.20300000000000001          7.7735712562424414E-033
  0.20600000000000002          1.5361355744787739E-032
  0.20900000000000002          1.6180911721080425E-032
  0.21200000000000002          3.1795633300455463E-033
  0.21500000000000002         -2.4954339482730463E-032
  0.21800000000000003         -5.7699984701407145E-032
  0.22100000000000003         -7.1392584453314126E-032
  0.22400000000000003         -3.7571584225498370E-032
  0.22700000000000004          5.8049737854063054E-032
  0.23000000000000004          1.9255144498642275E-031
  0.23300000000000004          2.9324390395232459E-031
  0.23600000000000004          2.5297236411673378E-031
  0.23900000000000005         -1.7094701711169733E-032
  0.24200000000000005         -5.0761378355203309E-031
  0.24500000000000005         -1.0410560719119363E-030
  0.24800000000000005         -1.2675345616265659E-030
  0.25100000000000006         -7.7661016470165109E-031
  0.25400000000000006          6.6775023673870907E-031
  0.25700000000000006          2.8377722389983659E-030
  0.26000000000000006          4.8481202523289382E-030
  0.26300000000000007          5.2473630749389071E-030
  0.26600000000000007          2.5317301518112219E-030
  0.26900000000000007         -3.9508176047514325E-030
  0.27200000000000008         -1.2993866214205331E-029
  0.27500000000000008         -2.0955330381403399E-029
  0.27800000000000008         -2.2228172607568140E-029
  0.28100000000000008         -1.1163594459707709E-029
  0.28400000000000009          1.4716123753139442E-029
  0.28700000000000009          5.1190968628658711E-029
  0.29000000000000009          8.5235535306019219E-029
  0.29300000000000009          9.6334819629162892E-029
  0.29600000000000010          6.2605466314464170E-029
  0.29900000000000010         -2.8574194436211475E-029
  0.30200000000000010         -1.6817732670196446E-028
  0.30499999999999999         -3.1656668402745361E-028
  0.30800000000000000         -4.0435235683452148E-028
  0.31100000000000000         -3.4826395284740552E-028
  0.31400000000000000         -8.2956549715539480E-029
  0.31700000000000000          3.9724658840124957E-028
  0.32000000000000001          1.0004234166803794E-027
  0.32300000000000001          1.5222136298984022E-027
  0.32600000000000001          1.6731812061964375E-027
  0.32900000000000001          1.1589362223303416E-027
  0.33200000000000002         -1.9369265522410074E-028
  0.33500000000000002         -2.2940622350273910E-027
  0.33800000000000002         -4.6800078691197225E-027
  0.34100000000000003         -6.5074751316546067E-027
  0.34400000000000003         -6.6911804571683451E-027
  0.34700000000000003         -4.2157903783398274E-027
  0.35000000000000003          1.4206747396509689E-027
  0.35300000000000004          9.7390544608024226E-027
  0.35600000000000004          1.8954931903816006E-026
  0.35900000000000004          2.5990473661354180E-026
  0.36200000000000004          2.6978154803991421E-026
  0.36500000000000005          1.8303117383495719E-026
  0.36800000000000005         -1.9434390709462475E-027
  0.37100000000000005         -3.2431049563235051E-026
  0.37400000000000005         -6.7483584253452804E-026
  0.37700000000000006         -9.6979405278473173E-026
  0.38000000000000006         -1.0774418524242402E-025
  0.38300000000000006         -8.6624459501077859E-026
  0.38600000000000007         -2.4948517203506296E-026
  0.38900000000000007          7.6501595806970443E-026
  0.39200000000000007          2.0341311425948474E-025
  0.39500000000000007          3.2645846106023842E-025
  0.39800000000000008          4.0396881283104259E-025
  0.40100000000000008          3.8965474657031785E-025
  0.40400000000000008          2.4505797293676265E-025
  0.40700000000000008         -4.5163055371418582E-026
  0.41000000000000009         -4.5859715339751847E-025
  0.41300000000000009         -9.2573884732116596E-025
  0.41600000000000009         -1.3307944102443966E-024
  0.41900000000000009         -1.5263664509221650E-024
  0.42200000000000010         -1.3631548947492455E-024
  0.42500000000000010         -7.3195119958789677E-025
  0.42800000000000010          3.8923009763069358E-025
  0.43100000000000011          1.8940811784955841E-024
  0.43400000000000000          3.5265057357077291E-024
  0.43700000000000000          4.8917321622387970E-024
  0.44000000000000000          5.5088746598498831E-024
  0.44300000000000000          4.9058873680657144E-024
  0.44600000000000001          2.7471090138393805E-024
  0.44900000000000001         -1.0281799781989857E-024
  0.45200000000000001         -6.0877632479680454E-024
  0.45500000000000002         -1.1645957617110271E-023
  0.45800000000000002         -1.6495181183408902E-023
  0.46100000000000002         -1.9152800784500670E-023
  0.46400000000000002         -1.8125816843118042E-023
  0.46700000000000003         -1.2268363170872506E-023
  0.47000000000000003         -1.1772067579851964E-024
  0.47300000000000003          1.4455649185446244E-023
  0.47600000000000003          3.2628767275039439E-023
  0.47900000000000004          5.0048303251020573E-023
  0.48200000000000004          6.2444393504934476E-023
  0.48500000000000004          6.5208190458185627E-023
  0.48800000000000004          5.4306219283633104E-023
  0.49100000000000005          2.7355286622774394E-023
  0.49400000000000005         -1.5326116361447210E-023
  0.49700000000000005         -6.9922002540263360E-023
  0.50000000000000000         -1.2882076326843627E-022
  0.50300000000000011         -1.8102070090045043E-022
  0.50600000000000001         -2.1335674048649469E-022
  0.50900000000000012         -2.1253076659046858E-022
  0.51200000000000001         -1.6776300232799883E-022
  0.51500000000000012         -7.3709529789455745E-023
  0.51800000000000002          6.6851756279803175E-023
  0.52100000000000013          2.4115070366178945E-022
  0.52400000000000002          4.2594505265722489E-022
  0.52700000000000014          5.8889338499088637E-022
  0.53000000000000003          6.9201404819679839E-022
  0.53300000000000014          6.9713716822575270E-022
  0.53600000000000003          5.7287856523822501E-022
  0.53900000000000015          3.0227388216960914E-022
  0.54200000000000004         -1.1011184058622791E-022
  0.54500000000000015         -6.3297447428828588E-022
  0.54800000000000004         -1.2063420133830103E-021
  0.55100000000000016         -1.7440733721708909E-021
  0.55400000000000005         -2.1414672851042626E-021
  0.55700000000000016         -2.2879760473961085E-021
  0.56000000000000005         -2.0841871899339935E-021
  0.56299999999999994         -1.4613645593808689E-021
  0.56600000000000006         -4.0102468902021008E-022
  0.56899999999999995          1.0485447942672559E-021
  0.57200000000000006          2.7621676470187316E-021
  0.57499999999999996          4.5371897115647228E-021
  0.57800000000000007          6.1048092617029957E-021
  0.58099999999999996          7.1545082930768825E-021
  0.58400000000000007          7.3710611386567984E-021
  0.58699999999999997          6.4816647036215698E-021
  0.59000000000000008          4.3086642773349647E-021
  0.59299999999999997          8.2153301782095982E-022
  0.59600000000000009         -3.8196764693468718E-021
  0.59899999999999998         -9.2377045880439157E-021
  0.60200000000000009         -1.4836242428768348E-020
  0.60500000000000020         -1.9829210834514010E-020
  0.60800000000000010         -2.3304655408622842E-020
  0.61100000000000021         -2.4322846018609534E-020
  0.61400000000000010         -2.2043333299818764E-020
  0.61700000000000021         -1.5870532183007836E-020
  0.62000000000000011         -5.6023472439742354E-021
  0.62300000000000022          8.4377448055839331E-021
  0.62600000000000011          2.5307330261511210E-020
  0.62900000000000000          4.3412640133823569E-020
  0.63200000000000012          6.0556602530424714E-020
  0.63500000000000001          7.4081075766832368E-020
  0.63800000000000012          8.1107468682257409E-020
  0.64100000000000001          7.8868401916776418E-020
  0.64400000000000013          6.5109037533740745E-020
  0.64700000000000002          3.8522630956214442E-020
  0.65000000000000013         -8.2835532545563243E-022
  0.65300000000000002         -5.1164034727601506E-020
  0.65600000000000014         -1.0877461293049239E-019
  0.65900000000000003         -1.6800502609419857E-019
  0.66200000000000014         -2.2148625856438249E-019
  0.66500000000000004         -2.6064500992359360E-019
  0.66800000000000015         -2.7649455013644923E-019
  0.67100000000000004         -2.6067586881446135E-019
  0.67400000000000015         -2.0667882988014371E-019
  0.67700000000000005         -1.1113586206789623E-019
  0.68000000000000016          2.4956066294775842E-020
  0.68300000000000005          1.9525114889086197E-019
  0.68600000000000017          3.8748689707108760E-019
  0.68900000000000006          5.8350022079942746E-019
  0.69200000000000017          7.5996505881471515E-019
  0.69500000000000006          8.8993370622223481E-019
  0.69800000000000018          9.4518965975999584E-019
  0.70100000000000007          8.9932214664212399E-019
  0.70400000000000018          7.3133236962286609E-019
  0.70700000000000007          4.2947086502010208E-019
  0.71000000000000019         -5.0820796604360797E-021
  0.71300000000000008         -5.5516164204686565E-019
  0.71600000000000019         -1.1856805251949393E-018
  0.71900000000000008         -1.8432926079192801E-018
  0.72200000000000020         -2.4580673782124507E-018
  0.72500000000000009         -2.9474520496953357E-018
  0.72800000000000020         -3.2226004723184458E-018
  0.73100000000000009         -3.1969142750530124E-018
  0.73400000000000021         -2.7963512669753163E-018
  0.73700000000000010         -1.9707685244580010E-018
  0.74000000000000021         -7.0529077987101889E-019
  0.74300000000000010          9.6952682024599339E-019
  0.74600000000000022          2.9701369740548253E-018
  0.74900000000000011          5.1564242431385640E-018
  0.75200000000000022          7.3334414176157570E-018
  0.75500000000000012          9.2594330386131970E-018
  0.75800000000000001          1.0660763174798766E-017
  0.76100000000000012          1.1253693235972549E-017
  0.76400000000000001          1.0772268744161853E-017
  0.76700000000000013          9.0007789512975167E-018
  0.77000000000000002          5.8084071080740999E-018
  0.77300000000000013          1.1830013453524267E-018
  0.77600000000000002         -4.7397565864124958E-018
  0.77900000000000014         -1.1655771542675837E-017
  0.78200000000000003         -1.9084573934999416E-017
  0.78500000000000014         -2.6377586209261214E-017
  0.78800000000000003         -3.2745365179261367E-017
  0.79100000000000015         -3.7305275110982594E-017
  0.79400000000000004         -3.9149298533825545E-017
  0.79700000000000015         -3.7429711427724028E-017
  0.80000000000000004         -3.1457955123099854E-017
  0.80300000000000016         -2.0809915350299049E-017
  0.80600000000000005         -5.4286851461360257E-018
  0.80900000000000016          1.4285847552974724E-017
  0.81200000000000006          3.7411985941107566E-017
  0.81500000000000017          6.2477591121341356E-017
  0.81800000000000006          8.7478190634019588E-017
  0.82100000000000017          1.0995031939330874E-016
  0.82400000000000007          1.2710480932444499E-016
  0.82700000000000018          1.3602055210052134E-016
  0.83000000000000007          1.3389291766332912E-016
  0.83300000000000018          1.1832569450020335E-016
  0.83600000000000008          8.7648118861305289E-017
  0.83900000000000019          4.1233431069233095E-017
  0.84200000000000008         -2.0210740542614820E-017
  0.84500000000000020         -9.4411953350304279E-017
  0.84800000000000009         -1.7739702274804526E-016
  0.85100000000000020         -2.6348186966175572E-016
  0.85400000000000009         -3.4541498119299846E-016
  0.85700000000000021         -4.1469317584413398E-016
  0.86000000000000010         -4.6205766968511619E-016
  0.86300000000000021         -4.7816276227553452E-016
  0.86600000000000010         -4.5439467904873336E-016
  0.86900000000000022         -3.8379858208216444E-016
  0.87200000000000011         -2.6205469802681934E-016
  0.87500000000000022         -8.8428486653559659E-017
  0.87800000000000011          1.3339286771958521E-016
  0.88100000000000001          3.9467318784846647E-016
  0.88400000000000012          6.8130549261592108E-016
  0.88700000000000001          9.7388651180976305E-016
  0.89000000000000012          1.2482587007799438E-015
  0.89300000000000002          1.4765698009837156E-015
  0.89600000000000013          1.6288656284160199E-015
  0.89900000000000002          1.6751850408000217E-015
  0.90200000000000014          1.5880879076651612E-015
  0.90500000000000003          1.3454873962113588E-015
  0.90800000000000014          9.3361708508222899E-016
  0.91100000000000003          3.4991112719916059E-016
  0.91400000000000015         -3.9445043937258781E-016
  0.91700000000000004         -1.2726117404444096E-015
  0.92000000000000015         -2.2409917683952864E-015
  0.92300000000000004         -3.2393868272402093E-015
  0.92600000000000016         -4.1924287348518263E-015
  0.92900000000000005         -5.0125519205207447E-015
  0.93200000000000016         -5.6045249630643638E-015
  0.93500000000000005         -5.8714919532964477E-015
  0.93800000000000017         -5.7223309781469033E-015
  0.94100000000000006         -5.0800223608428699E-015
  0.94400000000000017         -3.8905464724707462E-015
  0.94700000000000006         -2.1317506815259487E-015
  0.95000000000000018          1.7853214660816294E-016
  0.95300000000000007          2.9758633699000935E-015
  0.95600000000000018          6.1448473550162609E-015
  0.95900000000000007          9.5178569760364845E-015
  0.96200000000000019          1.2877434766831834E-014
  0.96500000000000008          1.5962945736681154E-014
  0.96800000000000019          1.8481737268125444E-014
  0.97100000000000009          2.0124803286367010E-014
  0.97400000000000020          2.0586675724822821E-014
  0.97700000000000009          1.9588786056778045E-014
  0.98000000000000020          1.6905295767906323E-014
  0.98300000000000010          1.2389904649262583E-014
  0.98600000000000021          6.0019289418393801E-015
  0.98900000000000010         -2.1704354152860692E-015
  0.99200000000000021         -1.1891740039349281E-014
  0.99500000000000011         -2.2768084855699501E-014
  0.99800000000000022         -3.4245145687421404E-014
   1.0010000000000001         -4.5617175677630921E-014
   1.0040000000000002         -5.6048329450159761E-014
   1.0070000000000001         -6.4607032281962660E-014
   1.0100000000000000         -7.0313312386102494E-014
   1.0130000000000001         -7.2197964722993618E-014
   1.0160000000000000         -6.9371820829923197E-014
   1.0190000000000001         -6.1101937471830138E-014
   1.0220000000000000         -4.6890740098796279E-014
   1.0250000000000001         -2.6553404851368745E-014
   1.0280000000000000         -2.8798021683668548E-016
   1.0310000000000001          3.1267955125587285E-014
   1.0340000000000000          6.6999624094699277E-014
   1.0370000000000001          1.0530276559479228E-013
   1.0400000000000000          1.4410123196764675E-013
   1.0430000000000001          1.8089871681733454E-013
   1.0460000000000000          2.1286684055788500E-013
   1.0490000000000002          2.3696994622344181E-013
   1.0520000000000000          2.5012498567806382E-013
   1.0550000000000002          2.4939122429537370E-013
   1.0580000000000001          2.3218431722792572E-013
   1.0610000000000002          1.9650306822002694E-013
   1.0640000000000001          1.4115872405643559E-013
   1.0670000000000002          6.5991653069847591E-014
   1.0700000000000001         -2.7939492909363632E-014
   1.0730000000000002         -1.3821184490898730E-013
   1.0760000000000001         -2.6095226397092050E-013
   1.0790000000000002         -3.9082516003973887E-013
   1.0820000000000001         -5.2110653965378516E-013
   1.0850000000000002         -6.4385343430125864E-013
   1.0880000000000001         -7.5017364531560400E-013
   1.0910000000000002         -8.3059461865041262E-013
   1.0940000000000001         -8.7552499944939412E-013
   1.0970000000000002         -8.7579591088453548E-013
