 -0.39999999999999997          0.0000000000000000     
 -0.39699999999999996          0.0000000000000000     
 -0.39399999999999996          0.0000000000000000     
 -0.39099999999999996          0.0000000000000000     
 -0.38799999999999996          0.0000000000000000     
 -0.38499999999999995          0.0000000000000000     
 -0.38199999999999995          0.0000000000000000     
 -0.37899999999999995          0.0000000000000000     
 -0.37599999999999995          0.0000000000000000     
 -0.37299999999999994          0.0000000000000000     
 -0.37000000000000000          0.0000000000000000     
 -0.36699999999999999          0.0000000000000000     
 -0.36399999999999999          0.0000000000000000     
 -0.36099999999999999          0.0000000000000000     
 -0.35799999999999998          0.0000000000000000     
 -0.35499999999999998          0.0000000000000000     
 -0.35199999999999998          0.0000000000000000     
 -0.34899999999999998          0.0000000000000000     
 -0.34599999999999997          0.0000000000000000     
 -0.34299999999999997          0.0000000000000000     
 -0.33999999999999997          0.0000000000000000     
 -0.33699999999999997          0.0000000000000000     
 -0.33399999999999996          0.0000000000000000     
 -0.33099999999999996          0.0000000000000000     
 -0.32799999999999996          0.0000000000000000     
 -0.32499999999999996          0.0000000000000000     
 -0.32199999999999995          1.2700122038223016E-041
 -0.31899999999999995          0.0000000000000000     
 -0.31599999999999995          2.1413616635091749E-040
 -0.31299999999999994         -1.1650946743137606E-039
 -0.30999999999999994          2.6432196472426449E-039
 -0.30699999999999994          6.2068922957574801E-039
 -0.30399999999999994         -3.2305471976969212E-038
 -0.30099999999999993         -2.7654094152977074E-038
 -0.29799999999999993          3.9164251364662997E-037
 -0.29499999999999998         -6.1242072636049506E-037
 -0.29199999999999998         -2.0691104178790940E-036
 -0.28899999999999998          8.5475154511111164E-036
 -0.28599999999999998          1.6530581580872314E-036
 -0.28299999999999997         -6.3251526217190151E-035
 -0.27999999999999997          7.2863581446708087E-035
 -0.27699999999999997          3.2107539576154232E-034
 -0.27399999999999997         -7.9912192177795024E-034
 -0.27099999999999996         -1.1134835932411501E-033
 -0.26799999999999996          5.5127310085593665E-033
 -0.26499999999999996          1.6808087013246496E-033
 -0.26199999999999996         -3.0014055199689686E-032
 -0.25899999999999995          1.0523840520320087E-032
 -0.25599999999999995          1.3950312110179608E-031
 -0.25300000000000000         -1.1773636904460307E-031
 -0.24999999999999997         -5.7794619872093156E-031
 -0.24699999999999997          7.2457397188569221E-031
 -0.24399999999999997          2.2012305275185462E-030
 -0.24099999999999996         -3.5080588027383268E-030
 -0.23799999999999996         -7.9076716593953778E-030
 -0.23499999999999996          1.4566067192883082E-029
 -0.23199999999999996          2.7367224255844414E-029
 -0.22899999999999995         -5.3605013759695257E-029
 -0.22599999999999995         -9.2534678875087404E-029
 -0.22299999999999998          1.7689714055221529E-028
 -0.21999999999999997          3.0671327553934948E-028
 -0.21699999999999997         -5.2226094074747933E-028
 -0.21399999999999997         -9.8834575313150416E-028
 -0.21099999999999997          1.3553610327359748E-027
 -0.20799999999999996          3.0424398358306711E-027
 -0.20499999999999996         -2.9541117292305263E-027
 -0.20199999999999996         -8.7388075859480065E-027
 -0.19899999999999995          4.7376699312761655E-027
 -0.19599999999999995          2.2746860176589771E-026
 -0.19299999999999995         -2.2298959365901504E-027
 -0.18999999999999997         -5.1502023351194714E-026
 -0.18699999999999997         -1.9799910953595154E-026
 -0.18399999999999997          9.3985431519517197E-026
 -0.18099999999999997          9.4649925899237504E-026
 -0.17799999999999996         -1.0977716653506072E-025
 -0.17499999999999996         -2.5640514552803443E-025
 -0.17199999999999996         -4.2125694997511568E-026
 -0.16899999999999996          4.2639415964355614E-025
 -0.16599999999999995          6.2160750355550177E-025
 -0.16299999999999995         -1.1263527390693454E-025
 -0.15999999999999998         -1.6840269917052123E-024
 -0.15699999999999997         -1.9177009150217101E-024
 -0.15399999999999997          1.8746385732259896E-024
 -0.15099999999999997          6.8691107828127661E-024
 -0.14799999999999996          3.4863302202249900E-024
 -0.14499999999999996         -1.1496114001416842E-023
 -0.14199999999999996         -2.1052721736148939E-023
 -0.13899999999999996         -6.8845117702194589E-025
 -0.13599999999999995          4.4048965732696184E-023
 -0.13299999999999995          5.8828576873195189E-023
 -0.12999999999999995         -1.6465714981060105E-023
 -0.12699999999999995         -1.5201991743206531E-022
 -0.12399999999999994         -1.7516384383013392E-022
 -0.12099999999999994          9.3077702945512949E-023
 -0.11799999999999994          5.1948718007303350E-022
 -0.11499999999999994          5.2817592110607074E-022
 -0.11199999999999993         -3.8421696071084875E-022
 -0.10899999999999999         -1.6984033689767930E-021
 -0.10599999999999998         -1.6424326614152680E-021
 -0.10299999999999998          1.2386226568547177E-021
  -9.9999999999999978E-002     5.3952452397226048E-021
  -9.6999999999999975E-002     5.4930171513650114E-021
  -9.3999999999999972E-002    -3.2494152470523075E-021
  -9.0999999999999970E-002    -1.6864971683143282E-020
  -8.7999999999999967E-002    -1.9225731587146317E-020
  -8.4999999999999964E-002     6.1282190432164014E-021
  -8.1999999999999962E-002     5.0944086919637826E-020
  -7.8999999999999959E-002     6.8052647467310627E-020
  -7.5999999999999956E-002     3.4410722217344270E-022
  -7.2999999999999954E-002    -1.4492323764553187E-019
  -6.9999999999999951E-002    -2.3729986293607593E-019
  -6.6999999999999948E-002    -8.0823247055902874E-020
  -6.3999999999999946E-002     3.7221626941001790E-019
  -6.0999999999999943E-002     7.9214618289286578E-019
  -5.7999999999999940E-002     5.3583040805256152E-019
  -5.4999999999999938E-002    -7.7912609373967112E-019
  -5.1999999999999935E-002    -2.4566852698567153E-018
  -4.8999999999999932E-002    -2.5368180480875494E-018
  -4.5999999999999985E-002     8.4617977576820737E-019
  -4.2999999999999983E-002     6.8052354341899679E-018
  -3.9999999999999980E-002     9.9826042075860023E-018
  -3.6999999999999977E-002     3.0449216031474408E-018
  -3.3999999999999975E-002    -1.5591857621076926E-017
  -3.0999999999999972E-002    -3.3638686345896266E-017
  -2.7999999999999969E-002    -2.6623458590170684E-017
  -2.4999999999999967E-002     2.2870977383305697E-017
  -2.1999999999999964E-002     9.5496749061354049E-017
  -1.8999999999999961E-002     1.2230584643068434E-016
  -1.5999999999999959E-002     2.1648848602625377E-017
  -1.2999999999999956E-002    -2.1143033880725188E-016
  -9.9999999999999534E-003    -4.2263247598496702E-016
  -6.9999999999999507E-003    -3.3012041773822554E-016
  -3.9999999999999480E-003     2.5883940633600683E-016
  -9.9999999999994538E-004     1.1307287194683681E-015
   2.0000000000000573E-003     1.5290342634134796E-015
   5.0000000000000600E-003     5.2407883669700275E-016
   8.0000000000000626E-003    -2.0751929779495193E-015
   1.1000000000000065E-002    -4.8180686008234375E-015
   1.4000000000000068E-002    -4.7413900013476840E-015
   1.7000000000000015E-002     7.0539803990481717E-016
   2.0000000000000018E-002     1.0492978233175758E-014
   2.3000000000000020E-002     1.7965261494691555E-014
   2.6000000000000023E-002     1.3039224442784889E-014
   2.9000000000000026E-002    -1.0134784305073174E-014
   3.2000000000000028E-002    -4.3522157514837691E-014
   3.5000000000000031E-002    -6.1809368953503008E-014
   3.8000000000000034E-002    -3.3634067297281510E-014
   4.1000000000000036E-002     5.2277322013173165E-014
   4.4000000000000039E-002     1.6010114075940241E-013
   4.7000000000000042E-002     2.0425949751305558E-013
   5.0000000000000044E-002     9.1611108456891541E-014
   5.3000000000000047E-002    -1.9806921083803389E-013
   5.6000000000000050E-002    -5.3933985208145493E-013
   5.9000000000000052E-002    -6.6648018251226641E-013
   6.2000000000000055E-002    -3.0559556645277454E-013
   6.5000000000000058E-002     5.9572556287931945E-013
   6.8000000000000060E-002     1.6714711398718867E-012
   7.1000000000000063E-002     2.1568027037623238E-012
   7.4000000000000066E-002     1.2428280748454339E-012
   7.7000000000000068E-002    -1.3121801684251055E-012
   8.0000000000000016E-002    -4.6387681674281480E-012
   8.3000000000000018E-002    -6.7309152799962483E-012
   8.6000000000000021E-002    -5.2456760920005702E-012
   8.9000000000000024E-002     1.0085667572366742E-012
   9.2000000000000026E-002     1.0589730594057986E-011
   9.5000000000000029E-002     1.8968901261825271E-011
   9.8000000000000032E-002     1.9902877139234418E-011
  0.10100000000000003          8.5733229776639761E-012
  0.10400000000000004         -1.4726282831831946E-011
  0.10700000000000004         -4.2396914068518995E-011
  0.11000000000000004         -6.0720795861486195E-011
  0.11300000000000004         -5.4965885548764292E-011
  0.11600000000000005         -1.6861740894069762E-011
  0.11900000000000005          4.8877957929798668E-011
  0.12200000000000005          1.2266143191416147E-010
  0.12500000000000006          1.7481672036863430E-010
  0.12800000000000006          1.7606773145081251E-010
  0.13100000000000006          1.0957727643683668E-010
  0.13400000000000006         -2.0968789610436569E-011
  0.13700000000000007         -1.9147354520147980E-010
  0.14000000000000007         -3.6635537469319069E-010
  0.14300000000000007         -5.1266720433838249E-010
  0.14600000000000007         -6.1315040571538575E-010
  0.14900000000000008         -6.7242089879855895E-010
  0.15200000000000008         -7.1388926057670155E-010
  0.15500000000000008         -7.6955631463033019E-010
  0.15800000000000008         -8.6803787850814688E-010
  0.16100000000000009         -1.0263599045812599E-009
  0.16400000000000009         -1.2483443720282953E-009
  0.16700000000000009         -1.5285880854814446E-009
  0.17000000000000010         -1.8585414614653785E-009
  0.17300000000000010         -2.2313304527754971E-009
  0.17600000000000010         -2.6442573162070669E-009
  0.17899999999999999         -3.1002499467237108E-009
  0.18200000000000000         -3.6100967331599543E-009
  0.18500000000000000         -4.1954932346469527E-009
  0.18800000000000000         -4.8904917907739359E-009
  0.19100000000000000         -5.7382161172923481E-009
  0.19400000000000001         -6.7819756970360113E-009
  0.19700000000000001         -8.0541969164077913E-009
  0.20000000000000001         -9.5696065227761974E-009
  0.20300000000000001         -1.1328181865643527E-008
  0.20600000000000002         -1.3328258281375769E-008
  0.20900000000000002         -1.5583362832810616E-008
  0.21200000000000002         -1.8133357184450400E-008
  0.21500000000000002         -2.1042950591415539E-008
  0.21800000000000003         -2.4388677132334443E-008
  0.22100000000000003         -2.8242837474567329E-008
  0.22400000000000003         -3.2665606074689052E-008
  0.22700000000000004         -3.7710450006423940E-008
  0.23000000000000004         -4.3439365029900696E-008
  0.23300000000000004         -4.9936902411452059E-008
  0.23600000000000004         -5.7312499934082987E-008
  0.23900000000000005         -6.5689063135240937E-008
  0.24200000000000005         -7.5185694846834143E-008
  0.24500000000000005         -8.5907121707074257E-008
  0.24800000000000005         -9.7947875019254298E-008
  0.25100000000000006         -1.1140866853450576E-007
  0.25400000000000006         -1.2641334962210822E-007
  0.25700000000000006         -1.4311509693783085E-007
  0.26000000000000006         -1.6168616366948009E-007
  0.26300000000000007         -1.8230076355367238E-007
  0.26600000000000007         -2.0512132430960437E-007
  0.26900000000000007         -2.3030006663663146E-007
  0.27200000000000008         -2.5799152937907899E-007
  0.27500000000000008         -2.8836725068847665E-007
  0.27800000000000008         -3.2161886281956853E-007
  0.28100000000000008         -3.5794640495790975E-007
  0.28400000000000009         -3.9754036083231261E-007
  0.28700000000000009         -4.4056493668767527E-007
  0.29000000000000009         -4.8715890399485170E-007
  0.29300000000000009         -5.3744308328943152E-007
  0.29600000000000010         -5.9153098360806465E-007
  0.29900000000000010         -6.4952857456989773E-007
  0.30200000000000010         -7.1152718331458160E-007
  0.30499999999999999         -7.7758204544690852E-007
  0.30800000000000000         -8.4770271572074992E-007
  0.31100000000000000         -9.2185180692215577E-007
  0.31400000000000000         -9.9994918950581120E-007
  0.31700000000000000         -1.0818752046977523E-006
  0.32000000000000001         -1.1674688279868340E-006
  0.32300000000000001         -1.2565060282280107E-006
  0.32600000000000001         -1.3486888934451062E-006
  0.32900000000000001         -1.4436322816380061E-006
  0.33200000000000002         -1.5408712212824281E-006
  0.33500000000000002         -1.6398561449064459E-006
  0.33800000000000002         -1.7399729942987878E-006
  0.34100000000000003         -1.8405217133527036E-006
  0.34400000000000003         -1.9407152246597007E-006
  0.34700000000000003         -2.0396691406054003E-006
  0.35000000000000003         -2.1363933651532833E-006
  0.35300000000000004         -2.2298018761194001E-006
  0.35600000000000004         -2.3187151035917217E-006
  0.35900000000000004         -2.4018631942012706E-006
  0.36200000000000004         -2.4779172953039029E-006
  0.36500000000000005         -2.5454451389994801E-006
  0.36800000000000005         -2.6029535150484943E-006
  0.37100000000000005         -2.6488907363849269E-006
  0.37400000000000005         -2.6816532935916461E-006
  0.37700000000000006         -2.6996072799859851E-006
  0.38000000000000006         -2.7011033649596199E-006
  0.38300000000000006         -2.6845071219648902E-006
  0.38600000000000007         -2.6481715082639006E-006
  0.38900000000000007         -2.5904859447773338E-006
  0.39200000000000007         -2.5098843183201920E-006
  0.39500000000000007         -2.4049053477153029E-006
  0.39800000000000008         -2.2741624211786927E-006
  0.40100000000000008         -2.1164796433906160E-006
  0.40400000000000008         -1.9307562640873684E-006
  0.40700000000000008         -1.7161133219065522E-006
  0.41000000000000009         -1.4718881912203688E-006
  0.41300000000000009         -1.1976011978289678E-006
  0.41600000000000009         -8.9305268835791322E-007
  0.41900000000000009         -5.5831707202259133E-007
  0.42200000000000010         -1.9380484017676157E-007
  0.42500000000000010          1.9980132408306991E-007
  0.42800000000000010          6.2143684211533319E-007
  0.43100000000000011          1.0697089547409264E-006
  0.43400000000000000          1.5429179830095590E-006
  0.43700000000000000          2.0389415520031773E-006
  0.44000000000000000          2.5553674863426343E-006
  0.44300000000000000          3.0893654396392563E-006
  0.44600000000000001          3.6377873715368810E-006
  0.44900000000000001          4.1971309640264817E-006
  0.45200000000000001          4.7635946321333836E-006
  0.45500000000000002          5.3330621799230372E-006
  0.45800000000000002          5.9011971560217397E-006
  0.46100000000000002          6.4634148090995828E-006
  0.46400000000000002          7.0149191944583925E-006
  0.46700000000000003          7.5507748362719200E-006
  0.47000000000000003          8.0659753187554983E-006
  0.47300000000000003          8.5554435628938109E-006
  0.47600000000000003          9.0141228175329572E-006
  0.47900000000000004          9.4370062668301635E-006
  0.48200000000000004          9.8191734108693064E-006
  0.48500000000000004          1.0155902507524528E-005
  0.48800000000000004          1.0442718534312337E-005
  0.49100000000000005          1.0675403896044607E-005
  0.49400000000000005          1.0850123355844219E-005
  0.49700000000000005          1.0963428746140357E-005
  0.50000000000000000          1.1012362364996306E-005
  0.50300000000000011          1.0994422832295861E-005
  0.50600000000000001          1.0907679796380807E-005
  0.50900000000000012          1.0750772043645255E-005
  0.51200000000000001          1.0522946031477635E-005
  0.51500000000000012          1.0224076512804880E-005
  0.51800000000000002          9.8547030076713577E-006
  0.52100000000000013          9.4160133109765590E-006
  0.52400000000000002          8.9098584227653817E-006
  0.52700000000000014          8.3387441349318884E-006
  0.53000000000000003          7.7058180262885358E-006
  0.53300000000000014          7.0148402505668898E-006
  0.53600000000000003          6.2701603353306363E-006
  0.53900000000000015          5.4766616908166026E-006
  0.54200000000000004          4.6396998975559329E-006
  0.54500000000000015          3.7651040930241736E-006
  0.54800000000000004          2.8590483628514417E-006
  0.55100000000000016          1.9280594629517583E-006
  0.55400000000000005          9.7895888022266102E-007
  0.55700000000000016          1.8739877652892306E-008
  0.56000000000000005         -9.4553912399843334E-007
  0.56299999999999994         -1.9067675402430130E-006
  0.56600000000000006         -2.8578575515461034E-006
  0.56899999999999995         -3.7918605425149751E-006
  0.57200000000000006         -4.7020375669139165E-006
  0.57499999999999996         -5.5818463132284865E-006
  0.57800000000000007         -6.4250828751728476E-006
  0.58099999999999996         -7.2258887731325492E-006
  0.58400000000000007         -7.9789420741253752E-006
  0.58699999999999997         -8.6793324997303579E-006
  0.59000000000000008         -9.3226686495267213E-006
  0.59299999999999997         -9.9052356100539203E-006
  0.59600000000000009         -1.0423787401569211E-005
  0.59899999999999998         -1.0875783623106030E-005
  0.60200000000000009         -1.1259282975043698E-005
  0.60500000000000020         -1.1572976539014105E-005
  0.60800000000000010         -1.1816238743105509E-005
  0.61100000000000021         -1.1989029767790751E-005
  0.61400000000000010         -1.2091986107146910E-005
  0.61700000000000021         -1.2126226014042561E-005
  0.62000000000000011         -1.2093529120366783E-005
  0.62300000000000022         -1.1996134813785256E-005
  0.62600000000000011         -1.1836735808450238E-005
  0.62900000000000000         -1.1618542882418833E-005
  0.63200000000000012         -1.1345109579193139E-005
  0.63500000000000001         -1.1020350691800250E-005
  0.63800000000000012         -1.0648487300386614E-005
  0.64100000000000001         -1.0233957585419613E-005
  0.64400000000000013         -9.7813475224577121E-006
  0.64700000000000002         -9.2953755269171100E-006
  0.65000000000000013         -8.7808268963042407E-006
  0.65300000000000002         -8.2425400186961488E-006
  0.65600000000000014         -7.6852896623890947E-006
  0.65900000000000003         -7.1138220526669499E-006
  0.66200000000000014         -6.5327360417964980E-006
  0.66500000000000004         -5.9464550845347589E-006
  0.66800000000000015         -5.3591920842202624E-006
  0.67100000000000004         -4.7749339151225344E-006
  0.67400000000000015         -4.1974505471673139E-006
  0.67700000000000005         -3.6302288992241583E-006
  0.68000000000000016         -3.0764786433369567E-006
  0.68300000000000005         -2.5390866680133275E-006
  0.68600000000000017         -2.0206259016009915E-006
  0.68900000000000006         -1.5233139463976359E-006
  0.69200000000000017         -1.0490546852361791E-006
  0.69500000000000006         -5.9945041007982273E-007
  0.69800000000000018         -1.7579171220565137E-007
  0.70100000000000007          2.2093002783454022E-007
  0.70400000000000018          5.9001225078916422E-007
  0.70700000000000007          9.3103474217650990E-007
  0.71000000000000019          1.2438464490030210E-006
  0.71300000000000008          1.5285397870851860E-006
  0.71600000000000019          1.7854229619345832E-006
  0.71900000000000008          2.0150053762191890E-006
  0.72200000000000020          2.2179782071958133E-006
  0.72500000000000009          2.3951902506287606E-006
  0.72800000000000020          2.5476275211799278E-006
  0.73100000000000009          2.6763873181797034E-006
  0.73400000000000021          2.7826545556977257E-006
  0.73700000000000010          2.8676913898926974E-006
  0.74000000000000021          2.9328240110362645E-006
  0.74300000000000010          2.9794202850768174E-006
  0.74600000000000022          3.0088738990066318E-006
  0.74900000000000011          3.0225930913869641E-006
  0.75200000000000022          3.0219675228233391E-006
  0.75500000000000012          3.0083516039924178E-006
  0.75800000000000001          2.9830719101994066E-006
  0.76100000000000012          2.9474232601081378E-006
  0.76400000000000001          2.9026448423975538E-006
  0.76700000000000013          2.8499097938761847E-006
  0.77000000000000002          2.7903487852056482E-006
  0.77300000000000013          2.7250295187941441E-006
  0.77600000000000002          2.6549394066355536E-006
  0.77900000000000014          2.5810007011187678E-006
  0.78200000000000003          2.5040772805279091E-006
  0.78500000000000014          2.4249456948203186E-006
  0.78800000000000003          2.3442846010965699E-006
  0.79100000000000015          2.2627216896024875E-006
  0.79400000000000004          2.1808400381047383E-006
  0.79700000000000015          2.0991500872337769E-006
  0.80000000000000004          2.0180966110178473E-006
  0.80300000000000016          1.9380810698440497E-006
  0.80600000000000005          1.8594298172153789E-006
  0.80900000000000016          1.7823875096439464E-006
  0.81200000000000006          1.7071688288984700E-006
  0.81500000000000017          1.6339895712700103E-006
  0.81800000000000006          1.5630223083451608E-006
  0.82100000000000017          1.4943804693050344E-006
  0.82400000000000007          1.4281481225386941E-006
  0.82700000000000018          1.3643732579411386E-006
  0.83000000000000007          1.3030538509356217E-006
  0.83300000000000018          1.2441865376442942E-006
  0.83600000000000008          1.1878010496665611E-006
  0.83900000000000019          1.1339092800798439E-006
  0.84200000000000008          1.0824642159185533E-006
  0.84500000000000020          1.0333994924343606E-006
  0.84800000000000009          9.8665147277257913E-007
  0.85100000000000020          9.4214215033478094E-007
  0.85400000000000009          8.9980238607930624E-007
  0.85700000000000021          8.5960239538146436E-007
  0.86000000000000010          8.2150230877618669E-007
  0.86300000000000021          7.8540527865583528E-007
  0.86600000000000010          7.5120096708638901E-007
  0.86900000000000022          7.1880868326651453E-007
  0.87200000000000011          6.8815765780401285E-007
  0.87500000000000022          6.5917876756347292E-007
  0.87800000000000011          6.3182453294434071E-007
  0.88100000000000001          6.0603917275712517E-007
  0.88400000000000012          5.8172429134821270E-007
  0.88700000000000001          5.5878069240593165E-007
  0.89000000000000012          5.3715432217822084E-007
  0.89300000000000002          5.1680601164068425E-007
  0.89600000000000013          4.9768143073993611E-007
  0.89900000000000002          4.7972345107532990E-007
  0.90200000000000014          4.6286405398379964E-007
  0.90500000000000003          4.4701067863566456E-007
  0.90800000000000014          4.3208351287412288E-007
  0.91100000000000003          4.1804950399314985E-007
  0.91400000000000015          4.0488718990847062E-007
  0.91700000000000004          3.9254829323161810E-007
  0.92000000000000015          3.8097229462712314E-007
  0.92300000000000004          3.7009434279707053E-007
  0.92600000000000016          3.5983690003413019E-007
  0.92900000000000005          3.5013768937261939E-007
  0.93200000000000016          3.4097339187714463E-007
  0.93500000000000005          3.3232412089380649E-007
  0.93800000000000017          3.2414002623831074E-007
  0.94100000000000006          3.1636606290556835E-007
  0.94400000000000017          3.0895378272699793E-007
  0.94700000000000006          3.0184774152686808E-007
  0.95000000000000018          2.9500187792135576E-007
  0.95300000000000007          2.8840033846762770E-007
  0.95600000000000018          2.8202751661368811E-007
  0.95900000000000007          2.7584009578598563E-007
  0.96200000000000019          2.6979765828107626E-007
  0.96500000000000008          2.6387567927947720E-007
  0.96800000000000019          2.5804228314506373E-007
  0.97100000000000009          2.5226507477700206E-007
  0.97400000000000020          2.4653796337578691E-007
  0.97700000000000009          2.4085899122776546E-007
  0.98000000000000020          2.3520475774502730E-007
  0.98300000000000010          2.2955400878420202E-007
  0.98600000000000021          2.2390607999061299E-007
  0.98900000000000010          2.1825487922321912E-007
  0.99200000000000021          2.1258854157885006E-007
  0.99500000000000011          2.0691781088750138E-007
  0.99800000000000022          2.0126210725828892E-007
   1.0010000000000001          1.9562073691999401E-007
   1.0040000000000002          1.8998802089416216E-007
   1.0070000000000001          1.8437462859697660E-007
   1.0100000000000000          1.7879336651873564E-007
   1.0130000000000001          1.7325284037973069E-007
   1.0160000000000000          1.6777395068330440E-007
   1.0190000000000001          1.6238516746367630E-007
   1.0220000000000000          1.5709801567016807E-007
   1.0250000000000001          1.5191541350244407E-007
   1.0280000000000000          1.4685318532987733E-007
   1.0310000000000001          1.4193646139253266E-007
   1.0340000000000000          1.3718930282006001E-007
   1.0370000000000001          1.3263360276806775E-007
   1.0400000000000000          1.2828292618514698E-007
   1.0430000000000001          1.2413775724500927E-007
   1.0460000000000000          1.2019632331064016E-007
   1.0490000000000002          1.1646584572183862E-007
   1.0520000000000000          1.1296345674985358E-007
   1.0550000000000002          1.0971189423651985E-007
   1.0580000000000001          1.0672336305404501E-007
   1.0610000000000002          1.0398668830208253E-007
   1.0640000000000001          1.0148134871605836E-007
   1.0670000000000002          9.9199118588969608E-008
   1.0700000000000001          9.7138683485000830E-008
   1.0730000000000002          9.5296261517922189E-008
   1.0760000000000001          9.3675534828989426E-008
   1.0790000000000002          9.2277408709116804E-008
   1.0820000000000001          9.1073490874201385E-008
   1.0850000000000002          9.0024232391238729E-008
   1.0880000000000001          8.9117233257482268E-008
   1.0910000000000002          8.8348133199787541E-008
   1.0940000000000001          8.7692597498976889E-008
   1.0970000000000002          8.7130396261394070E-008
