 -0.39999999999999997          0.0000000000000000     
 -0.39699999999999996          0.0000000000000000     
 -0.39399999999999996          0.0000000000000000     
 -0.39099999999999996          0.0000000000000000     
 -0.38799999999999996          0.0000000000000000     
 -0.38499999999999995          0.0000000000000000     
 -0.38199999999999995          0.0000000000000000     
 -0.37899999999999995          0.0000000000000000     
 -0.37599999999999995          0.0000000000000000     
 -0.37299999999999994          0.0000000000000000     
 -0.37000000000000000          0.0000000000000000     
 -0.36699999999999999          0.0000000000000000     
 -0.36399999999999999          0.0000000000000000     
 -0.36099999999999999          0.0000000000000000     
 -0.35799999999999998          0.0000000000000000     
 -0.35499999999999998          0.0000000000000000     
 -0.35199999999999998          0.0000000000000000     
 -0.34899999999999998          0.0000000000000000     
 -0.34599999999999997          0.0000000000000000     
 -0.34299999999999997          0.0000000000000000     
 -0.33999999999999997          0.0000000000000000     
 -0.33699999999999997          0.0000000000000000     
 -0.33399999999999996          0.0000000000000000     
 -0.33099999999999996          0.0000000000000000     
 -0.32799999999999996          0.0000000000000000     
 -0.32499999999999996          0.0000000000000000     
 -0.32199999999999995          0.0000000000000000     
 -0.31899999999999995          0.0000000000000000     
 -0.31599999999999995          0.0000000000000000     
 -0.31299999999999994          0.0000000000000000     
 -0.30999999999999994          0.0000000000000000     
 -0.30699999999999994          0.0000000000000000     
 -0.30399999999999994          0.0000000000000000     
 -0.30099999999999993          0.0000000000000000     
 -0.29799999999999993          0.0000000000000000     
 -0.29499999999999998          0.0000000000000000     
 -0.29199999999999998          0.0000000000000000     
 -0.28899999999999998          0.0000000000000000     
 -0.28599999999999998          0.0000000000000000     
 -0.28299999999999997          0.0000000000000000     
 -0.27999999999999997          0.0000000000000000     
 -0.27699999999999997          0.0000000000000000     
 -0.27399999999999997          0.0000000000000000     
 -0.27099999999999996          0.0000000000000000     
 -0.26799999999999996          0.0000000000000000     
 -0.26499999999999996          0.0000000000000000     
 -0.26199999999999996          0.0000000000000000     
 -0.25899999999999995          0.0000000000000000     
 -0.25599999999999995          0.0000000000000000     
 -0.25300000000000000          0.0000000000000000     
 -0.24999999999999997         -1.3419561454888472E-042
 -0.24699999999999997          2.4693452916396678E-042
 -0.24399999999999997          1.1625220016052487E-042
 -0.24099999999999996         -1.2493710988713153E-041
 -0.23799999999999996          8.4166960881450276E-042
 -0.23499999999999996          4.6499770444609869E-040
 -0.23199999999999996         -2.4418470692209441E-040
 -0.22899999999999995         -3.0165900896419367E-039
 -0.22599999999999995          4.1391567873279085E-039
 -0.22299999999999998          2.2400700431862581E-038
 -0.21999999999999997         -2.5094712900761507E-038
 -0.21699999999999997         -8.5782687415843467E-038
 -0.21399999999999997          9.5328188638352526E-038
 -0.21099999999999997          3.1254284527148340E-037
 -0.20799999999999996         -4.2330841192823144E-037
 -0.20499999999999996         -1.0773667986202994E-036
 -0.20199999999999996          1.6074713241245761E-036
 -0.19899999999999995          3.5630798445166335E-036
 -0.19599999999999995         -5.3380530398215517E-036
 -0.19299999999999995         -1.1376981078285966E-035
 -0.18999999999999997          1.5409654185440140E-035
 -0.18699999999999997          3.4889652221165086E-035
 -0.18399999999999997         -3.7362996683635316E-035
 -0.18099999999999997         -1.0086198132007460E-034
 -0.17799999999999996          6.8106865912971298E-035
 -0.17499999999999996          2.6544461346964752E-034
 -0.17199999999999996         -4.9094709424144028E-035
 -0.16899999999999996         -5.9651660353493760E-034
 -0.16599999999999995         -2.6534222615763788E-034
 -0.16299999999999995          9.7281361017959872E-034
 -0.15999999999999998          1.5097707548502368E-033
 -0.15699999999999997         -2.7378451538636878E-034
 -0.15399999999999997         -4.4624769525013802E-033
 -0.15099999999999997         -5.6583047675176230E-033
 -0.14799999999999996          7.1255139082095894E-033
 -0.14499999999999996          2.6322020592302594E-032
 -0.14199999999999996          6.1272191227943368E-033
 -0.13899999999999996         -6.9652680297808660E-032
 -0.13599999999999995         -8.6434767049649521E-032
 -0.13299999999999995          9.4597455893396790E-032
 -0.12999999999999995          3.2143752926643724E-031
 -0.12699999999999995          1.2380145273470697E-031
 -0.12399999999999994         -6.6244394700799893E-031
 -0.12099999999999994         -1.1422390786865865E-030
 -0.11799999999999994          2.5137452953238077E-031
 -0.11499999999999994          3.3494661714083250E-030
 -0.11199999999999993          3.7361624002087111E-030
 -0.10899999999999999         -4.0107084045860673E-030
 -0.10599999999999998         -1.5106283476138821E-029
 -0.10299999999999998         -9.3388141818071112E-030
  -9.9999999999999978E-002     2.6599099308312065E-029
  -9.6999999999999975E-002     5.9352599789380753E-029
  -9.3999999999999972E-002     1.2968872936546636E-029
  -9.0999999999999970E-002    -1.3222146976230376E-028
  -8.7999999999999967E-002    -2.1718947365038686E-028
  -8.4999999999999964E-002     2.7342789753153377E-029
  -8.1999999999999962E-002     5.8631361038032557E-028
  -7.8999999999999959E-002     7.7143005968415842E-028
  -7.5999999999999956E-002    -3.5490419748395332E-028
  -7.2999999999999954E-002    -2.4350903106628599E-027
  -6.9999999999999951E-002    -2.6779507839068900E-027
  -6.6999999999999948E-002     2.0573851757380643E-027
  -6.3999999999999946E-002     9.6168363361482649E-027
  -6.0999999999999943E-002     9.3463332955208549E-027
  -5.7999999999999940E-002    -9.3292233141803631E-027
  -5.4999999999999938E-002    -3.6795063403014496E-026
  -5.1999999999999935E-002    -3.3586955814294640E-026
  -4.8999999999999932E-002     3.6954596084535946E-026
  -4.5999999999999985E-002     1.3742007133479436E-025
  -4.2999999999999983E-002     1.2512322834036446E-025
  -3.9999999999999980E-002    -1.3082955232089017E-025
  -3.6999999999999977E-002    -5.0079753216156238E-025
  -3.3999999999999975E-002    -4.8226227882846159E-025
  -3.0999999999999972E-002     4.0801188151252803E-025
  -2.7999999999999969E-002     1.7748649237775283E-024
  -2.4999999999999967E-002     1.8956558517485053E-024
  -2.1999999999999964E-002    -1.0516164809886358E-024
  -1.8999999999999961E-002    -6.0625049018261640E-024
  -1.5999999999999959E-002    -7.4379904501662011E-024
  -1.2999999999999956E-002     1.6901423847113973E-024
  -9.9999999999999534E-003     1.9654888028499877E-023
  -6.9999999999999507E-003     2.8525353443296562E-023
  -3.9999999999999480E-003     2.9214699171154949E-024
  -9.9999999999994538E-004    -5.9032293328579167E-023
   2.0000000000000573E-003    -1.0484671354607868E-022
   5.0000000000000600E-003    -4.4345396676266141E-023
   8.0000000000000626E-003     1.5711215844198270E-022
   1.1000000000000065E-002     3.6216365427179697E-022
   1.4000000000000068E-002     2.6863896323623201E-022
   1.7000000000000015E-002    -3.3271028527263600E-022
   2.0000000000000018E-002    -1.1486033474261402E-021
   2.3000000000000020E-002    -1.2448327961876743E-021
   2.6000000000000023E-002     3.3113557080275969E-022
   2.9000000000000026E-002     3.2277287184204938E-021
   3.2000000000000028E-002     4.8644138192893570E-021
   3.5000000000000031E-002     1.5929382975989252E-021
   3.8000000000000034E-002    -7.4685700402959034E-021
   4.1000000000000036E-002    -1.6335660421689344E-020
   4.4000000000000039E-002    -1.2968205982068219E-020
   4.7000000000000042E-002     1.1135250105607492E-020
   5.0000000000000044E-002     4.6275683442417989E-020
   5.3000000000000047E-002     5.8644909174709875E-020
   5.6000000000000050E-002     9.1689149756463451E-021
   5.9000000000000052E-002    -1.0270347864886918E-019
   6.2000000000000055E-002    -2.0073611693345183E-019
   6.5000000000000058E-002    -1.5109275509165332E-019
   6.8000000000000060E-002     1.3093771869876855E-019
   7.1000000000000063E-002     5.3372549058651374E-019
   7.4000000000000066E-002     6.9816255287095882E-019
   7.7000000000000068E-002     2.0758718090015846E-019
   8.0000000000000016E-002    -9.8691935069918767E-019
   8.3000000000000018E-002    -2.1826166945115664E-018
   8.6000000000000021E-002    -2.0460662880034705E-018
   8.9000000000000024E-002     4.6903960184863407E-019
   9.2000000000000026E-002     4.7419831071790249E-018
   9.5000000000000029E-002     7.7413981301890699E-018
   9.8000000000000032E-002     5.2125790659168873E-018
  0.10100000000000003         -4.9121440976755196E-018
  0.10400000000000004         -1.8642821221923883E-017
  0.10700000000000004         -2.5149193084658719E-017
  0.11000000000000004         -1.2153313892991404E-017
  0.11300000000000004          2.3231185273982658E-017
  0.11600000000000005          6.4700333532210996E-017
  0.11900000000000005          7.7987023030060681E-017
  0.12200000000000005          2.9580420665210548E-017
  0.12500000000000006         -8.2340092577790060E-017
  0.12800000000000006         -2.0442267959727328E-016
  0.13100000000000006         -2.3754892861241613E-016
  0.13400000000000006         -9.1592920033244982E-017
  0.13700000000000007          2.3318724118179095E-016
  0.14000000000000007          5.8987082671561875E-016
  0.14300000000000007          7.1382485324937836E-016
  0.14600000000000007          3.6118825777236919E-016
  0.14900000000000008         -4.9204648228450196E-016
  0.15200000000000008         -1.5103244989170756E-015
  0.15500000000000008         -2.0513803918738935E-015
  0.15800000000000008         -1.4651192640797561E-015
  0.16100000000000009          4.6037487589492033E-016
  0.16400000000000009          3.1483391624777517E-015
  0.16700000000000009          5.2516618524241130E-015
  0.17000000000000010          5.1710714028749298E-015
  0.17300000000000010          1.9290002012710406E-015
  0.17600000000000010         -4.0121828839994734E-015
  0.17899999999999999         -1.0485957893499892E-014
  0.18200000000000000         -1.4219955645098714E-014
  0.18500000000000000         -1.2195313782526112E-014
  0.18800000000000000         -3.2350131073749674E-015
  0.19100000000000000          1.0922317937426499E-014
  0.19400000000000001          2.5661709263127158E-014
  0.19700000000000001          3.4792471068550169E-014
  0.20000000000000001          3.2719514705913087E-014
  0.20300000000000001          1.6722421216817091E-014
  0.20600000000000002         -1.1474685105543180E-014
  0.20900000000000002         -4.5414686646160178E-014
  0.21200000000000002         -7.5075384696924006E-014
  0.21500000000000002         -8.9276643482215466E-014
  0.21800000000000003         -7.8806566431482915E-014
  0.22100000000000003         -3.9542545421373559E-014
  0.22400000000000003          2.5257880048058733E-014
  0.22700000000000004          1.0426166515405807E-013
  0.23000000000000004          1.7942663938404519E-013
  0.23300000000000004          2.2936323807496746E-013
  0.23600000000000004          2.3401465842109020E-013
  0.23900000000000005          1.7956867506002573E-013
  0.24200000000000005          6.2512238851786930E-014
  0.24500000000000005         -1.0788364609921947E-013
  0.24800000000000005         -3.0889164715015463E-013
  0.25100000000000006         -5.0550290656073857E-013
  0.25400000000000006         -6.5364218521906428E-013
  0.25700000000000006         -7.0588116297982583E-013
  0.26000000000000006         -6.1996773803623199E-013
  0.26300000000000007         -3.6961370331769390E-013
  0.26600000000000007          4.4424089007924534E-014
  0.26900000000000007          5.8615548589465399E-013
  0.27200000000000008          1.1824085756424285E-012
  0.27500000000000008          1.7292014558314003E-012
  0.27800000000000008          2.1062148467922390E-012
  0.28100000000000008          2.1968469697809723E-012
  0.28400000000000009          1.9100268434985142E-012
  0.28700000000000009          1.2000051527104183E-012
  0.29000000000000009          8.1294900251078802E-014
  0.29300000000000009         -1.3630547247713260E-012
  0.29600000000000010         -2.9811431632513960E-012
  0.29900000000000010         -4.5610139568487675E-012
  0.30200000000000010         -5.8493203242944591E-012
  0.30499999999999999         -6.5794752719067684E-012
  0.30800000000000000         -6.5070060818586697E-012
  0.31100000000000000         -5.4480145221260705E-012
  0.31400000000000000         -3.3155248787473047E-012
  0.31700000000000000         -1.4867305614163506E-013
  0.32000000000000001          3.8694289388135464E-012
  0.32300000000000001          8.4082260401508818E-012
  0.32600000000000001          1.3002836457039418E-011
  0.32900000000000001          1.7085086537208787E-011
  0.33200000000000002          2.0032346869065502E-011
  0.33500000000000002          2.1231700188341968E-011
  0.33800000000000002          2.0154073186564708E-011
  0.34100000000000003          1.6430434198441941E-011
  0.34400000000000003          9.9208381212941740E-012
  0.34700000000000003          7.6751676761116243E-013
  0.35000000000000003         -1.0575471418847706E-011
  0.35300000000000004         -2.3341409314230886E-011
  0.35600000000000004         -3.6482216643499884E-011
  0.35900000000000004         -4.8732658958550548E-011
  0.36200000000000004         -5.8705236507743144E-011
  0.36500000000000005         -6.5010058549044102E-011
  0.36800000000000005         -6.6390348751071851E-011
  0.37100000000000005         -6.1862667742228144E-011
  0.37400000000000005         -5.0849322247605886E-011
  0.37700000000000006         -3.3292931371284090E-011
  0.38000000000000006         -9.7429255248988366E-012
  0.38300000000000006          1.8592958885493672E-011
  0.38600000000000007          4.9837109048316522E-011
  0.38900000000000007          8.1474759519244940E-011
  0.39200000000000007          1.1042810428884590E-010
  0.39500000000000007          1.3316803779050096E-010
  0.39800000000000008          1.4585414756265481E-010
  0.40100000000000008          1.4448929022461958E-010
  0.40400000000000008          1.2507560568885137E-010
  0.40700000000000008          8.3757231824181981E-011
  0.41000000000000009          1.6934713465741937E-011
  0.41300000000000009         -7.8668168619276081E-011
  0.41600000000000009         -2.0598725426048671E-010
  0.41900000000000009         -3.6767860509431385E-010
  0.42200000000000010         -5.6624644286472969E-010
  0.42500000000000010         -8.0424616673312326E-010
  0.42800000000000010         -1.0845647658699970E-009
  0.43100000000000011         -1.4107483061486272E-009
  0.43400000000000000         -1.7873913930236117E-009
  0.43700000000000000         -2.2205531971474994E-009
  0.44000000000000000         -2.7182068578177085E-009
  0.44300000000000000         -3.2907111715602783E-009
  0.44600000000000001         -3.9512518121912568E-009
  0.44900000000000001         -4.7163103803645342E-009
  0.45200000000000001         -5.6061042244860136E-009
  0.45500000000000002         -6.6450417078551364E-009
  0.45800000000000002         -7.8621132311376070E-009
  0.46100000000000002         -9.2913888246773273E-009
  0.46400000000000002         -1.0972437108276062E-008
  0.46700000000000003         -1.2950815181719856E-008
  0.47000000000000003         -1.5278649290444767E-008
  0.47300000000000003         -1.8015233503622859E-008
  0.47600000000000003         -2.1227705417787790E-008
  0.47900000000000004         -2.4991940577387778E-008
  0.48200000000000004         -2.9393430188713265E-008
  0.48500000000000004         -3.4528383460557810E-008
  0.48800000000000004         -4.0504987333769531E-008
  0.49100000000000005         -4.7444804987958540E-008
  0.49400000000000005         -5.5484214898333304E-008
  0.49700000000000005         -6.4776180059423929E-008
  0.50000000000000000         -7.5492045374913607E-008
  0.50300000000000011         -8.7823165134496439E-008
  0.50600000000000001         -1.0198352328981961E-007
  0.50900000000000012         -1.1821125333353504E-007
  0.51200000000000001         -1.3677051264141380E-007
  0.51500000000000012         -1.5795455830343198E-007
  0.51800000000000002         -1.8208664346213576E-007
  0.52100000000000013         -2.0952277824993910E-007
  0.52400000000000002         -2.4065347941126906E-007
  0.52700000000000014         -2.7590543380583686E-007
  0.53000000000000003         -3.1574349873387779E-007
  0.53300000000000014         -3.6067164493266294E-007
  0.53600000000000003         -4.1123394664201977E-007
  0.53900000000000015         -4.6801593487235034E-007
  0.54200000000000004         -5.3164565447427761E-007
  0.54500000000000015         -6.0279201490766252E-007
  0.54800000000000004         -6.8216688050485317E-007
  0.55100000000000016         -7.7052192627106525E-007
  0.55400000000000005         -8.6864771388960652E-007
  0.55700000000000016         -9.7737160821686762E-007
  0.56000000000000005         -1.0975550253452800E-006
  0.56299999999999994         -1.2300874101086448E-006
  0.56600000000000006         -1.3758826585713716E-006
  0.56899999999999995         -1.5358733533845866E-006
  0.57200000000000006         -1.7110024538724504E-006
  0.57499999999999996         -1.9022150669000165E-006
  0.57800000000000007         -2.1104464635696066E-006
  0.58099999999999996         -2.3366134475451283E-006
  0.58400000000000007         -2.5816005534412235E-006
  0.58699999999999997         -2.8462405321557304E-006
  0.59000000000000008         -3.1313065543049842E-006
  0.59299999999999997         -3.4374907850245475E-006
  0.59600000000000009         -3.7653804747420564E-006
  0.59899999999999998         -4.1154508013212148E-006
  0.60200000000000009         -4.4880243615792119E-006
  0.60500000000000020         -4.8832683302630762E-006
  0.60800000000000010         -5.3011583261410708E-006
  0.61100000000000021         -5.7414592639952749E-006
  0.61400000000000010         -6.2036960691286275E-006
  0.61700000000000021         -6.6871333820842239E-006
  0.62000000000000011         -7.1907559182867073E-006
  0.62300000000000022         -7.7132387501984211E-006
  0.62600000000000011         -8.2529172708479143E-006
  0.62900000000000000         -8.8077840651963972E-006
  0.63200000000000012         -9.3754655415486085E-006
  0.63500000000000001         -9.9531832037677803E-006
  0.63800000000000012         -1.0537777631646665E-005
  0.64100000000000001         -1.1125665838072733E-005
  0.64400000000000013         -1.1712854026043825E-005
  0.64700000000000002         -1.2294950885225866E-005
  0.65000000000000013         -1.2867130875865271E-005
  0.65300000000000002         -1.3424173053170159E-005
  0.65600000000000014         -1.3960480186742537E-005
  0.65900000000000003         -1.4470090862246057E-005
  0.66200000000000014         -1.4946691117025268E-005
  0.66500000000000004         -1.5383710891404328E-005
  0.66800000000000015         -1.5774294056765949E-005
  0.67100000000000004         -1.6111394279096109E-005
  0.67400000000000015         -1.6387820152340120E-005
  0.67700000000000005         -1.6596324860344363E-005
  0.68000000000000016         -1.6729626780536119E-005
  0.68300000000000005         -1.6780537680329800E-005
  0.68600000000000017         -1.6742041112065229E-005
  0.68900000000000006         -1.6607304301114152E-005
  0.69200000000000017         -1.6369907456266389E-005
  0.69500000000000006         -1.6023855946474745E-005
  0.69800000000000018         -1.5563688742845118E-005
  0.70100000000000007         -1.4984568626687393E-005
  0.70400000000000018         -1.4282404867443714E-005
  0.70700000000000007         -1.3453955393747271E-005
  0.71000000000000019         -1.2496867488269810E-005
  0.71300000000000008         -1.1409828337188392E-005
  0.71600000000000019         -1.0192652579789562E-005
  0.71900000000000008         -8.8462699268117285E-006
  0.72200000000000020         -7.3728718740320149E-006
  0.72500000000000009         -5.7759479992595531E-006
  0.72800000000000020         -4.0602750482796742E-006
  0.73100000000000009         -2.2320206250296840E-006
  0.73400000000000021         -2.9869174306137527E-007
  0.73700000000000010          1.7308524175589129E-006
  0.74000000000000021          3.8464449374601430E-006
  0.74300000000000010          6.0366056006550080E-006
  0.74600000000000022          8.2886540645783458E-006
  0.74900000000000011          1.0588755997027447E-005
  0.75200000000000022          1.2922034019335113E-005
  0.75500000000000012          1.5272683507548810E-005
  0.75800000000000001          1.7624080031685139E-005
  0.76100000000000012          1.9958967065813436E-005
  0.76400000000000001          2.2259570407215840E-005
  0.76700000000000013          2.4507812929764514E-005
  0.77000000000000002          2.6685438631010087E-005
  0.77300000000000013          2.8774256721321240E-005
  0.77600000000000002          3.0756323211927018E-005
  0.77900000000000014          3.2614153065419080E-005
  0.78200000000000003          3.4330893926059482E-005
  0.78500000000000014          3.5890532582839101E-005
  0.78800000000000003          3.7278061049370276E-005
  0.79100000000000015          3.8479722029602782E-005
  0.79400000000000004          3.9483098917099190E-005
  0.79700000000000015          4.0277361742921222E-005
  0.80000000000000004          4.0853428519644861E-005
  0.80300000000000016          4.1203976724744857E-005
  0.80600000000000005          4.1323590667823616E-005
  0.80900000000000016          4.1208910941891949E-005
  0.81200000000000006          4.0858605978213478E-005
  0.81500000000000017          4.0273470409230393E-005
  0.81800000000000006          3.9456404452712461E-005
  0.82100000000000017          3.8412481494598164E-005
  0.82400000000000007          3.7148751092143000E-005
  0.82700000000000018          3.5674295532187438E-005
  0.83000000000000007          3.4000068780768976E-005
  0.83300000000000018          3.2138792954908017E-005
  0.83600000000000008          3.0104797287748275E-005
  0.83900000000000019          2.7914067232549878E-005
  0.84200000000000008          2.5583794944253509E-005
  0.84500000000000020          2.3132304333896901E-005
  0.84800000000000009          2.0578875417366708E-005
  0.85100000000000020          1.7943430996215843E-005
  0.85400000000000009          1.5246411697805681E-005
  0.85700000000000021          1.2508561648124431E-005
  0.86000000000000010          9.7506572758563306E-006
  0.86300000000000021          6.9933340349879962E-006
  0.86600000000000010          4.2568233656136741E-006
  0.86900000000000022          1.5608141705318332E-006
  0.87200000000000011         -1.0758976666548593E-006
  0.87500000000000022         -3.6354220733464804E-006
  0.87800000000000011         -6.1009790129378453E-006
  0.88100000000000001         -8.4570774840601774E-006
  0.88400000000000012         -1.0689609130859067E-005
  0.88700000000000001         -1.2786023701428967E-005
  0.89000000000000012         -1.4735326991377055E-005
  0.89300000000000002         -1.6528221076403229E-005
  0.89600000000000013         -1.8157135884408471E-005
  0.89900000000000002         -1.9616174321667835E-005
  0.90200000000000014         -2.0901222217881197E-005
  0.90500000000000003         -2.2009807368801435E-005
  0.90800000000000014         -2.2941161324872419E-005
  0.91100000000000003         -2.3696105235796438E-005
  0.91400000000000015         -2.4276990844704085E-005
  0.91700000000000004         -2.4687654792197262E-005
  0.92000000000000015         -2.4933209164121116E-005
  0.92300000000000004         -2.5019970699063829E-005
  0.92600000000000016         -2.4955372565499157E-005
  0.92900000000000005         -2.4747798502547455E-005
  0.93200000000000016         -2.4406462568306412E-005
  0.93500000000000005         -2.3941294023848756E-005
  0.93800000000000017         -2.3362743775370650E-005
  0.94100000000000006         -2.2681677581991507E-005
  0.94400000000000017         -2.1909210999011980E-005
  0.94700000000000006         -2.1056587313456365E-005
  0.95000000000000018         -2.0135077911490454E-005
  0.95300000000000007         -1.9155863230624577E-005
  0.95600000000000018         -1.8129925751035389E-005
  0.95900000000000007         -1.7067922361611948E-005
  0.96200000000000019         -1.5980107092562936E-005
  0.96500000000000008         -1.4876244467411129E-005
  0.96800000000000019         -1.3765546868764765E-005
  0.97100000000000009         -1.2656649243038145E-005
  0.97400000000000020         -1.1557541970674470E-005
  0.97700000000000009         -1.0475550064571886E-005
  0.98000000000000020         -9.4172744735796268E-006
  0.98300000000000010         -8.3885853373468736E-006
  0.98600000000000021         -7.3946140643840334E-006
  0.98900000000000010         -6.4397832275079224E-006
  0.99200000000000021         -5.5278126519637457E-006
  0.99500000000000011         -4.6617534978534528E-006
  0.99800000000000022         -3.8440057560172448E-006
   1.0010000000000001         -3.0763369804253050E-006
   1.0040000000000002         -2.3599036594599612E-006
   1.0070000000000001         -1.6953133096561892E-006
   1.0100000000000000         -1.0826638233473949E-006
   1.0130000000000001         -5.2159061648443208E-007
   1.0160000000000000         -1.1318729895142321E-008
   1.0190000000000001          4.4928370604232863E-007
   1.0220000000000000          8.6168020684902562E-007
   1.0250000000000001          1.2276203686888721E-006
   1.0280000000000000          1.5490836131848373E-006
   1.0310000000000001          1.8282419449049355E-006
   1.0340000000000000          2.0674149038082582E-006
   1.0370000000000001          2.2690305765941557E-006
   1.0400000000000000          2.4355758919465173E-006
   1.0430000000000001          2.5695800346088470E-006
   1.0460000000000000          2.6735947096332015E-006
   1.0490000000000002          2.7501555204518556E-006
   1.0520000000000000          2.8017633480108700E-006
   1.0550000000000002          2.8308532449526729E-006
   1.0580000000000001          2.8397780727842915E-006
   1.0610000000000002          2.8307932519845007E-006
   1.0640000000000001          2.8060433409059432E-006
   1.0670000000000002          2.7675663779066525E-006
   1.0700000000000001          2.7172922168725176E-006
   1.0730000000000002          2.6570227213740653E-006
   1.0760000000000001          2.5884257505670599E-006
   1.0790000000000002          2.5130334356562127E-006
   1.0820000000000001          2.4322512220968424E-006
   1.0850000000000002          2.3473490191212646E-006
   1.0880000000000001          2.2594736882776218E-006
   1.0910000000000002          2.1696701107349137E-006
   1.0940000000000001          2.0788690306293101E-006
   1.0970000000000002          1.9878836175220076E-006
