 -0.39999999999999997          0.0000000000000000     
 -0.39699999999999996          0.0000000000000000     
 -0.39399999999999996          0.0000000000000000     
 -0.39099999999999996          0.0000000000000000     
 -0.38799999999999996          0.0000000000000000     
 -0.38499999999999995          0.0000000000000000     
 -0.38199999999999995          0.0000000000000000     
 -0.37899999999999995          0.0000000000000000     
 -0.37599999999999995          0.0000000000000000     
 -0.37299999999999994          0.0000000000000000     
 -0.37000000000000000          0.0000000000000000     
 -0.36699999999999999          0.0000000000000000     
 -0.36399999999999999          0.0000000000000000     
 -0.36099999999999999          0.0000000000000000     
 -0.35799999999999998          0.0000000000000000     
 -0.35499999999999998          0.0000000000000000     
 -0.35199999999999998          0.0000000000000000     
 -0.34899999999999998          0.0000000000000000     
 -0.34599999999999997          0.0000000000000000     
 -0.34299999999999997          0.0000000000000000     
 -0.33999999999999997          0.0000000000000000     
 -0.33699999999999997          0.0000000000000000     
 -0.33399999999999996          0.0000000000000000     
 -0.33099999999999996          0.0000000000000000     
 -0.32799999999999996          0.0000000000000000     
 -0.32499999999999996          0.0000000000000000     
 -0.32199999999999995          0.0000000000000000     
 -0.31899999999999995          0.0000000000000000     
 -0.31599999999999995          0.0000000000000000     
 -0.31299999999999994          0.0000000000000000     
 -0.30999999999999994          0.0000000000000000     
 -0.30699999999999994          0.0000000000000000     
 -0.30399999999999994          0.0000000000000000     
 -0.30099999999999993          0.0000000000000000     
 -0.29799999999999993          0.0000000000000000     
 -0.29499999999999998          0.0000000000000000     
 -0.29199999999999998          0.0000000000000000     
 -0.28899999999999998          0.0000000000000000     
 -0.28599999999999998          0.0000000000000000     
 -0.28299999999999997          0.0000000000000000     
 -0.27999999999999997          0.0000000000000000     
 -0.27699999999999997          0.0000000000000000     
 -0.27399999999999997          0.0000000000000000     
 -0.27099999999999996          0.0000000000000000     
 -0.26799999999999996          0.0000000000000000     
 -0.26499999999999996          0.0000000000000000     
 -0.26199999999999996          0.0000000000000000     
 -0.25899999999999995          0.0000000000000000     
 -0.25599999999999995          0.0000000000000000     
 -0.25300000000000000          0.0000000000000000     
 -0.24999999999999997          0.0000000000000000     
 -0.24699999999999997          0.0000000000000000     
 -0.24399999999999997          0.0000000000000000     
 -0.24099999999999996          0.0000000000000000     
 -0.23799999999999996          0.0000000000000000     
 -0.23499999999999996          0.0000000000000000     
 -0.23199999999999996          0.0000000000000000     
 -0.22899999999999995          0.0000000000000000     
 -0.22599999999999995          0.0000000000000000     
 -0.22299999999999998          0.0000000000000000     
 -0.21999999999999997          0.0000000000000000     
 -0.21699999999999997          0.0000000000000000     
 -0.21399999999999997          0.0000000000000000     
 -0.21099999999999997          0.0000000000000000     
 -0.20799999999999996          0.0000000000000000     
 -0.20499999999999996          0.0000000000000000     
 -0.20199999999999996          0.0000000000000000     
 -0.19899999999999995          0.0000000000000000     
 -0.19599999999999995          0.0000000000000000     
 -0.19299999999999995          0.0000000000000000     
 -0.18999999999999997          0.0000000000000000     
 -0.18699999999999997          0.0000000000000000     
 -0.18399999999999997          0.0000000000000000     
 -0.18099999999999997          0.0000000000000000     
 -0.17799999999999996          0.0000000000000000     
 -0.17499999999999996          0.0000000000000000     
 -0.17199999999999996          0.0000000000000000     
 -0.16899999999999996          0.0000000000000000     
 -0.16599999999999995          0.0000000000000000     
 -0.16299999999999995          0.0000000000000000     
 -0.15999999999999998          0.0000000000000000     
 -0.15699999999999997          0.0000000000000000     
 -0.15399999999999997          0.0000000000000000     
 -0.15099999999999997          0.0000000000000000     
 -0.14799999999999996          0.0000000000000000     
 -0.14499999999999996          0.0000000000000000     
 -0.14199999999999996          0.0000000000000000     
 -0.13899999999999996          0.0000000000000000     
 -0.13599999999999995          0.0000000000000000     
 -0.13299999999999995          0.0000000000000000     
 -0.12999999999999995          0.0000000000000000     
 -0.12699999999999995          0.0000000000000000     
 -0.12399999999999994          0.0000000000000000     
 -0.12099999999999994          0.0000000000000000     
 -0.11799999999999994          0.0000000000000000     
 -0.11499999999999994          0.0000000000000000     
 -0.11199999999999993          0.0000000000000000     
 -0.10899999999999999          0.0000000000000000     
 -0.10599999999999998          0.0000000000000000     
 -0.10299999999999998          0.0000000000000000     
  -9.9999999999999978E-002     0.0000000000000000     
  -9.6999999999999975E-002     0.0000000000000000     
  -9.3999999999999972E-002     0.0000000000000000     
  -9.0999999999999970E-002     0.0000000000000000     
  -8.7999999999999967E-002     0.0000000000000000     
  -8.4999999999999964E-002     0.0000000000000000     
  -8.1999999999999962E-002     0.0000000000000000     
  -7.8999999999999959E-002     0.0000000000000000     
  -7.5999999999999956E-002     0.0000000000000000     
  -7.2999999999999954E-002     0.0000000000000000     
  -6.9999999999999951E-002     0.0000000000000000     
  -6.6999999999999948E-002     0.0000000000000000     
  -6.3999999999999946E-002     0.0000000000000000     
  -6.0999999999999943E-002     0.0000000000000000     
  -5.7999999999999940E-002     0.0000000000000000     
  -5.4999999999999938E-002     0.0000000000000000     
  -5.1999999999999935E-002     0.0000000000000000     
  -4.8999999999999932E-002     0.0000000000000000     
  -4.5999999999999985E-002     0.0000000000000000     
  -4.2999999999999983E-002     0.0000000000000000     
  -3.9999999999999980E-002     0.0000000000000000     
  -3.6999999999999977E-002     0.0000000000000000     
  -3.3999999999999975E-002     0.0000000000000000     
  -3.0999999999999972E-002     0.0000000000000000     
  -2.7999999999999969E-002     0.0000000000000000     
  -2.4999999999999967E-002     0.0000000000000000     
  -2.1999999999999964E-002     0.0000000000000000     
  -1.8999999999999961E-002    -1.3462755749834515E-041
  -1.5999999999999959E-002     0.0000000000000000     
  -1.2999999999999956E-002     4.2618102898549682E-041
  -9.9999999999999534E-003    -2.5992504105097350E-043
  -6.9999999999999507E-003    -1.6051252253465703E-039
  -3.9999999999999480E-003    -1.1184255624635027E-039
  -9.9999999999994538E-004     1.5609571916446808E-039
   2.0000000000000573E-003     5.6990127080719846E-039
   5.0000000000000600E-003     5.0699219213707187E-039
   8.0000000000000626E-003    -1.2664108411362772E-038
   1.1000000000000065E-002    -2.1159362134686946E-038
   1.4000000000000068E-002    -1.5365820451015198E-038
   1.7000000000000015E-002     4.3252971369828674E-038
   2.0000000000000018E-002     1.1243991331693554E-037
   2.3000000000000020E-002     8.1987859010404686E-038
   2.6000000000000023E-002    -1.2604106792679429E-037
   2.9000000000000026E-002    -4.3656548730628084E-037
   3.2000000000000028E-002    -4.4500541697194357E-037
   3.5000000000000031E-002     3.0289944284249888E-037
   3.8000000000000034E-002     1.6147004715873797E-036
   4.1000000000000036E-002     2.0710049494584294E-036
   4.4000000000000039E-002    -2.9672083949578047E-037
   4.7000000000000042E-002    -5.5083756099610546E-036
   5.0000000000000044E-002    -8.9543379681535539E-036
   5.3000000000000047E-002    -2.6276075599033988E-036
   5.6000000000000050E-002     1.6589523710534896E-035
   5.9000000000000052E-002     3.5535638715557121E-035
   6.2000000000000055E-002     2.4109130162570915E-035
   6.5000000000000058E-002    -4.0010160325095502E-035
   6.8000000000000060E-002    -1.2717549685825399E-034
   7.1000000000000063E-002    -1.3480010381188184E-034
   7.4000000000000066E-002     5.0396272998615303E-035
   7.7000000000000068E-002     3.9767944381234507E-034
   8.0000000000000016E-002     6.0025691463487597E-034
   8.3000000000000018E-002     1.8428828058743044E-034
   8.6000000000000021E-002    -1.0126411813736869E-033
   8.9000000000000024E-002    -2.2402432002657682E-033
   9.2000000000000026E-002    -1.8123161273607453E-033
   9.5000000000000029E-002     1.6460148365410116E-033
   9.8000000000000032E-002     6.9551388896076784E-033
  0.10100000000000003          9.0693462657850536E-033
  0.10400000000000004          1.4817830092338327E-033
  0.10700000000000004         -1.6786348264853032E-032
  0.11000000000000004         -3.3823084124969318E-032
  0.11300000000000004         -2.6221827731460497E-032
  0.11600000000000005          2.3337687532094649E-032
  0.11900000000000005          9.7742794738035338E-032
  0.12200000000000005          1.3072558003702241E-031
  0.12500000000000006          3.7762204707049288E-032
  0.12800000000000006         -1.9948948529737554E-031
  0.13100000000000006         -4.4423954745239532E-031
  0.13400000000000006         -4.1282429451771955E-031
  0.13700000000000007          1.3596161377701692E-031
  0.14000000000000007          1.0789191802879623E-030
  0.14300000000000007          1.7201712680786108E-030
  0.14600000000000007          1.0388856795810029E-030
  0.14900000000000008         -1.4685288300683404E-030
  0.15200000000000008         -4.7509131711020829E-030
  0.15500000000000008         -5.9345412644989185E-030
  0.15800000000000008         -1.7931690258212529E-030
  0.16100000000000009          8.1092150464189824E-030
  0.16400000000000009          1.8494454443922198E-029
  0.16700000000000009          1.8907835601593890E-029
  0.17000000000000010          6.2077421950978240E-032
  0.17300000000000010         -3.5674435057509628E-029
  0.17600000000000010         -6.6809405624783783E-029
  0.17899999999999999         -5.8132758723701873E-029
  0.18200000000000000          1.6010360257218865E-029
  0.18500000000000000          1.3893962523599770E-028
  0.18800000000000000          2.3311085576516621E-028
  0.19100000000000000          1.8418271194859579E-028
  0.19400000000000001         -8.2023746756067115E-029
  0.19700000000000001         -4.9962222512801264E-028
  0.20000000000000001         -8.1173785391013646E-028
  0.20300000000000001         -6.4915684786897973E-028
  0.20600000000000002          2.3494460723312525E-028
  0.20900000000000002          1.6600046132026155E-027
  0.21200000000000002          2.8448466679393164E-027
  0.21500000000000002          2.5982525823171454E-027
  0.21800000000000003         -2.6643271328305792E-029
  0.22100000000000003         -4.8051308858050977E-027
  0.22400000000000003         -9.6593769487776443E-027
  0.22700000000000004         -1.0889529517719271E-026
  0.23000000000000004         -4.7478464133951294E-027
  0.23300000000000004          9.8876151182609439E-027
  0.23600000000000004          2.8883723785715808E-026
  0.23900000000000005          4.2069917976384850E-026
  0.24200000000000005          3.5976095022093765E-026
  0.24500000000000005          5.0184453609033113E-028
  0.24800000000000005         -6.2288297393517053E-026
  0.25100000000000006         -1.3140203637229897E-025
  0.25400000000000006         -1.6751967158430104E-025
  0.25700000000000006         -1.2499422937084385E-025
  0.26000000000000006          2.5029872027721779E-026
  0.26300000000000007          2.6714337571430824E-025
  0.26600000000000007          5.2279689907191814E-025
  0.26900000000000007          6.5536314303346570E-025
  0.27200000000000008          5.0984842823376408E-025
  0.27500000000000008         -1.4678863023992482E-026
  0.27800000000000008         -8.7991402273502624E-025
  0.28100000000000008         -1.8471731712257576E-024
  0.28400000000000009         -2.4836089019234482E-024
  0.28700000000000009         -2.2676033113587596E-024
  0.29000000000000009         -7.9299044879594606E-025
  0.29300000000000009          1.9747777417885283E-024
  0.29600000000000010          5.4833080526123787E-024
  0.29900000000000010          8.5356509950643363E-024
  0.30200000000000010          9.4906998074231681E-024
  0.30499999999999999          6.7551087982098431E-024
  0.30800000000000000         -5.0778736167681501E-025
  0.31100000000000000         -1.1648841414282590E-023
  0.31400000000000000         -2.4072056465277035E-023
  0.31700000000000000         -3.3345141502320572E-023
  0.32000000000000001         -3.4087947914217781E-023
  0.32300000000000001         -2.1631013091182004E-023
  0.32600000000000001          5.8573859666409696E-024
  0.32900000000000001          4.5373674686676805E-023
  0.33200000000000002          8.7999729003567622E-023
  0.33500000000000002          1.1951028459586361E-022
  0.33800000000000002          1.2313611389174975E-022
  0.34100000000000003          8.4378192852555976E-023
  0.34400000000000003         -2.9756330793530219E-024
  0.34700000000000003         -1.3120663746278800E-022
  0.35000000000000003         -2.7541970317229369E-022
  0.35300000000000004         -3.9467463606563804E-022
  0.35600000000000004         -4.3876664614445044E-022
  0.35900000000000004         -3.6057865862949810E-022
  0.36200000000000004         -1.3216266989960469E-022
  0.36500000000000005          2.3908034340707394E-022
  0.36800000000000005          6.9899458105912771E-022
  0.37100000000000005          1.1451282311876065E-021
  0.37400000000000005          1.4388855586558097E-021
  0.37700000000000006          1.4324921380505394E-021
  0.38000000000000006          1.0080174917172152E-021
  0.38300000000000006          1.2143680818055903E-022
  0.38600000000000007         -1.1588285719253749E-021
  0.38900000000000007         -2.6311586989839360E-021
  0.39200000000000007         -3.9689392507679983E-021
  0.39500000000000007         -4.7645143029409451E-021
  0.39800000000000008         -4.6083699911740485E-021
  0.40100000000000008         -3.1938415829804721E-021
  0.40400000000000008         -4.2848854133508284E-022
  0.40700000000000008          3.4736004541842529E-021
  0.41000000000000009          7.9465858082646090E-021
  0.41300000000000009          1.2099033343400719E-020
  0.41600000000000009          1.4825053054903536E-020
  0.41900000000000009          1.4997735510642349E-020
  0.42200000000000010          1.1722814143872610E-020
  0.42500000000000010          4.6109908693944014E-021
  0.42800000000000010         -5.9865716161398075E-021
  0.43100000000000011         -1.8840606501234555E-020
  0.43400000000000000         -3.1858335390930269E-020
  0.43700000000000000         -4.2285381191944683E-020
  0.44000000000000000         -4.7098416359278645E-020
  0.44300000000000000         -4.3554872005919708E-020
  0.44600000000000001         -2.9826420022217243E-020
  0.44900000000000001         -5.6109147186938844E-021
  0.45200000000000001          2.7401194585711264E-020
  0.45500000000000002          6.5328174336730847E-020
  0.45800000000000002          1.0226249368517095E-019
  0.46100000000000002          1.3085311389091245E-019
  0.46400000000000002          1.4328977638441545E-019
  0.46700000000000003          1.3260290480719030E-019
  0.47000000000000003          9.4121187531822865E-020
  0.47300000000000003          2.6872263336606023E-020
  0.47600000000000003         -6.5324064184553676E-020
  0.47900000000000004         -1.7331185240475688E-019
  0.48200000000000004         -2.8281248910290350E-019
  0.48500000000000004         -3.7551952378935270E-019
  0.48800000000000004         -4.3109300606804212E-019
  0.49100000000000005         -4.2993631377129919E-019
  0.49400000000000005         -3.5649451923244758E-019
  0.49700000000000005         -2.0270548463065447E-019
  0.50000000000000000          2.8885370209412689E-020
  0.50300000000000011          3.2287814629020997E-019
  0.50600000000000001          6.5014284615544398E-019
  0.50900000000000012          9.6876396888814909E-019
  0.51200000000000001          1.2270783639202689E-018
  0.51500000000000012          1.3688552512292976E-018
  0.51800000000000002          1.3403884743499475E-018
  0.52100000000000013          1.0989648065421563E-018
  0.52400000000000002          6.2184502665544688E-019
  0.52700000000000014         -8.5346876195095264E-020
  0.53000000000000003         -9.8215231461916498E-019
  0.53300000000000014         -1.9900536413779627E-018
  0.53600000000000003         -2.9937418846824937E-018
  0.53900000000000015         -3.8478030382693802E-018
  0.54200000000000004         -4.3892212659162977E-018
  0.54500000000000015         -4.4554344578634349E-018
  0.54800000000000004         -3.9068511166826294E-018
  0.55100000000000016         -2.6519101918000523E-018
  0.55400000000000005         -6.7185940296308479E-019
  0.55700000000000016          1.9580668463632801E-018
  0.56000000000000005          5.0547159372179005E-018
  0.56299999999999994          8.3240563423270821E-018
  0.56600000000000006          1.1371998919931932E-017
  0.56899999999999995          1.3731114103923645E-017
  0.57200000000000006          1.4903242743698317E-017
  0.57499999999999996          1.4416603281043633E-017
  0.57800000000000007          1.1893052373314519E-017
  0.58099999999999996          7.1199334199908288E-018
  0.58400000000000007          1.1787604319732149E-019
  0.58699999999999997         -8.8042356746212841E-018
  0.59000000000000008         -1.9017181228449720E-017
  0.59299999999999997         -2.9571219315297239E-017
  0.59600000000000009         -3.9234920336245761E-017
  0.59899999999999998         -4.6577353869332011E-017
  0.60200000000000009         -5.0093046811488369E-017
  0.60500000000000020         -4.8365195245160824E-017
  0.60800000000000010         -4.0255896332897922E-017
  0.61100000000000021         -2.5107280102211813E-017
  0.61400000000000010         -2.9332205518294579E-018
  0.61700000000000021          2.5422492360756547E-017
  0.62000000000000011          5.8187236576133828E-017
  0.62300000000000022          9.2643588812638201E-017
  0.62600000000000011          1.2521654940840448E-016
  0.62900000000000000          1.5167564880518053E-016
  0.63200000000000012          1.6745773020307457E-016
  0.63500000000000001          1.6809842657165705E-016
  0.63800000000000012          1.4974881760715370E-016
  0.64100000000000001          1.0974398291767089E-016
  0.64400000000000013          4.7169134389298190E-017
  0.64700000000000002         -3.6634515185913824E-017
  0.65000000000000013         -1.3769357984002800E-016
  0.65300000000000002         -2.4922029420667841E-016
  0.65600000000000014         -3.6168824507650298E-016
  0.65900000000000003         -4.6321262427404494E-016
  0.66200000000000014         -5.4026015322978794E-016
  0.66500000000000004         -5.7868849494193709E-016
  0.66800000000000015         -5.6507608891293539E-016
  0.67100000000000004         -4.8827439607607524E-016
  0.67400000000000015         -3.4106059098318196E-016
  0.67700000000000005         -1.2176580216614881E-016
  0.68000000000000016          1.6430858658427139E-016
  0.68300000000000005          5.0385866974349676E-016
  0.68600000000000017          8.7512243933468819E-016
  0.68900000000000006          1.2481556672871759E-015
  0.69200000000000017          1.5859708041653458E-015
  0.69500000000000006          1.8466006667783409E-015
  0.69800000000000018          1.9861017426627366E-015
  0.70100000000000007          1.9623701395470621E-015
  0.70400000000000018          1.7395901737186567E-015
  0.70700000000000007          1.2930381498223459E-015
  0.71000000000000019          6.1385475468100658E-016
  0.71300000000000008         -2.8669756560876667E-016
  0.71600000000000019         -1.3739108463800714E-015
  0.71900000000000008         -2.5878240597978421E-015
  0.72200000000000020         -3.8433358892949743E-015
  0.72500000000000009         -5.0326635976634872E-015
  0.72800000000000020         -6.0303202127979986E-015
  0.73100000000000009         -6.7007799389877645E-015
  0.73400000000000021         -6.9085195449555396E-015
  0.73700000000000010         -6.5302450470784616E-015
  0.74000000000000021         -5.4684041670049092E-015
  0.74300000000000010         -3.6652286391745376E-015
  0.74600000000000022         -1.1161763389300409E-015
  0.74900000000000011          2.1185665697286885E-015
  0.75200000000000022          5.9058724254362971E-015
  0.75500000000000012          1.0035979422114462E-014
  0.75800000000000001          1.4224754962009305E-014
  0.76100000000000012          1.8122447782146567E-014
  0.76400000000000001          2.1330017333925562E-014
  0.76700000000000013          2.3422517039460205E-014
  0.77000000000000002          2.3979444851621210E-014
  0.77300000000000013          2.2620575672662640E-014
  0.77600000000000002          1.9045424027154443E-014
  0.77900000000000014          1.3074140409241549E-014
  0.78200000000000003          4.6863598528404932E-015
  0.78500000000000014         -5.9451940978318142E-015
  0.78800000000000003         -1.8430251330913072E-014
  0.79100000000000015         -3.2148873031161320E-014
  0.79400000000000004         -4.6255403664309643E-014
  0.79700000000000015         -5.9700650218746860E-014
  0.80000000000000004         -7.1274499617958835E-014
  0.80300000000000016         -7.9668489628001820E-014
  0.80600000000000005         -8.3558480709394272E-014
  0.80900000000000016         -8.1703416033575396E-014
  0.81200000000000006         -7.3056161779017887E-014
  0.81500000000000017         -5.6880851395078768E-014
  0.81800000000000006         -3.2868302921473263E-014
  0.82100000000000017         -1.2402715490989627E-015
  0.82400000000000007          3.7165077415273108E-014
  0.82700000000000018          8.0838973514855195E-014
  0.83000000000000007          1.2758578559332870E-013
  0.83300000000000018          1.7455374796566305E-013
  0.83600000000000008          2.1831954879199563E-013
  0.83900000000000019          2.5502734328387979E-013
  0.84200000000000008          2.8058635931557905E-013
  0.84500000000000020          2.9091438603185552E-013
  0.84800000000000009          2.8223048879469354E-013
  0.85100000000000020          2.5137485213356668E-013
  0.85400000000000009          1.9614135100236835E-013
  0.85700000000000021          1.1560183567841441E-013
  0.86000000000000010          1.0405363667179614E-014
  0.86300000000000021         -1.1698643722057767E-013
  0.86600000000000010         -2.6213814414086169E-013
  0.86900000000000022         -4.1858788226860287E-013
  0.87200000000000011         -5.7791621362730234E-013
  0.87500000000000022         -7.2995905472760540E-013
  0.87800000000000011         -8.6316512486702563E-013
  0.88100000000000001         -9.6510755313996641E-013
  0.88400000000000012         -1.0231358853644756E-012
  0.88700000000000001         -1.0251362807906792E-012
  0.89000000000000012         -9.6041023560668160E-013
  0.89300000000000002         -8.2056877256599874E-013
  0.89600000000000013         -6.0045596360796707E-013
  0.89900000000000002         -2.9900030793026475E-013
  0.90200000000000014          8.0039864160772634E-014
  0.90500000000000003          5.2752496799269161E-013
  0.90800000000000014          1.0286109349072259E-012
  0.91100000000000003          1.5627327228922714E-012
  0.91400000000000015          2.1039418884002467E-012
  0.91700000000000004          2.6216073010176977E-012
  0.92000000000000015          3.0815135135623046E-012
  0.92300000000000004          3.4473712968794002E-012
  0.92600000000000016          3.6826573172047239E-012
  0.92900000000000005          3.7527808551997714E-012
  0.93200000000000016          3.6275011539463449E-012
  0.93500000000000005          3.2834550945182343E-012
  0.93800000000000017          2.7067466060006360E-012
  0.94100000000000006          1.8953886176327232E-012
  0.94400000000000017          8.6148324107625816E-013
  0.94700000000000006         -3.6696017415554935E-013
  0.95000000000000018         -1.7447972045662442E-012
  0.95300000000000007         -3.2092050071492903E-012
  0.95600000000000018         -4.6798850237839873E-012
  0.95900000000000007         -6.0602628661544532E-012
  0.96200000000000019         -7.2395154075102470E-012
  0.96500000000000008         -8.0956248590657632E-012
  0.96800000000000019         -8.4993500792284392E-012
  0.97100000000000009         -8.3190951513626439E-012
  0.97400000000000020         -7.4263884435711262E-012
  0.97700000000000009         -5.7020930365107870E-012
  0.98000000000000020         -3.0429477385890842E-012
  0.98300000000000010          6.3174865627088938E-013
  0.98600000000000021          5.3735740598784704E-012
  0.98900000000000010          1.1198678408339451E-011
  0.99200000000000021          1.8082074910036376E-011
  0.99500000000000011          2.5952769090888781E-011
  0.99800000000000022          3.4689731064735638E-011
   1.0010000000000001          4.4118835730361104E-011
   1.0040000000000002          5.4011447140219080E-011
   1.0070000000000001          6.4083413297676620E-011
   1.0100000000000000          7.3995077299774168E-011
   1.0130000000000001          8.3352593804986548E-011
   1.0160000000000000          9.1708863449484771E-011
   1.0190000000000001          9.8563865654359701E-011
   1.0220000000000000          1.0336567696449382E-010
   1.0250000000000001          1.0550950704890458E-010
   1.0280000000000000          1.0433435518956149E-010
   1.0310000000000001          9.9116344768079759E-011
   1.0340000000000000          8.9058995458619210E-011
   1.0370000000000001          7.3278687141939517E-011
   1.0400000000000000          5.0781409356161241E-011
   1.0430000000000001          2.0438148542885088E-011
   1.0460000000000000         -1.9051067175330046E-011
   1.0490000000000002         -6.9202309753419508E-011
   1.0520000000000000         -1.3180376972632638E-010
   1.0550000000000002         -2.0897750071865900E-010
   1.0580000000000001         -3.0325845549267352E-010
   1.0610000000000002         -4.1768152469990851E-010
   1.0640000000000001         -5.5588880501778312E-010
   1.0670000000000002         -7.2224949952497231E-010
   1.0700000000000001         -9.2197842939122256E-010
   1.0730000000000002         -1.1613087761250453E-009
   1.0760000000000001         -1.4476558355848987E-009
   1.0790000000000002         -1.7897906088660999E-009
   1.0820000000000001         -2.1980704322693416E-009
   1.0850000000000002         -2.6846646381625205E-009
   1.0880000000000001         -3.2637904703495278E-009
   1.0910000000000002         -3.9520463388223236E-009
   1.0940000000000001         -4.7686779449431971E-009
   1.0970000000000002         -5.7359394309485571E-009
