 -0.39999999999999997          0.0000000000000000     
 -0.39699999999999996          0.0000000000000000     
 -0.39399999999999996          0.0000000000000000     
 -0.39099999999999996          0.0000000000000000     
 -0.38799999999999996          0.0000000000000000     
 -0.38499999999999995          0.0000000000000000     
 -0.38199999999999995          0.0000000000000000     
 -0.37899999999999995          0.0000000000000000     
 -0.37599999999999995          0.0000000000000000     
 -0.37299999999999994          0.0000000000000000     
 -0.37000000000000000          0.0000000000000000     
 -0.36699999999999999          0.0000000000000000     
 -0.36399999999999999          0.0000000000000000     
 -0.36099999999999999          0.0000000000000000     
 -0.35799999999999998          0.0000000000000000     
 -0.35499999999999998          0.0000000000000000     
 -0.35199999999999998          0.0000000000000000     
 -0.34899999999999998          0.0000000000000000     
 -0.34599999999999997          0.0000000000000000     
 -0.34299999999999997          0.0000000000000000     
 -0.33999999999999997          0.0000000000000000     
 -0.33699999999999997          0.0000000000000000     
 -0.33399999999999996          0.0000000000000000     
 -0.33099999999999996          0.0000000000000000     
 -0.32799999999999996          0.0000000000000000     
 -0.32499999999999996          0.0000000000000000     
 -0.32199999999999995          0.0000000000000000     
 -0.31899999999999995          0.0000000000000000     
 -0.31599999999999995          0.0000000000000000     
 -0.31299999999999994          0.0000000000000000     
 -0.30999999999999994          0.0000000000000000     
 -0.30699999999999994          0.0000000000000000     
 -0.30399999999999994          0.0000000000000000     
 -0.30099999999999993          0.0000000000000000     
 -0.29799999999999993          0.0000000000000000     
 -0.29499999999999998          0.0000000000000000     
 -0.29199999999999998          0.0000000000000000     
 -0.28899999999999998          0.0000000000000000     
 -0.28599999999999998          0.0000000000000000     
 -0.28299999999999997          0.0000000000000000     
 -0.27999999999999997          0.0000000000000000     
 -0.27699999999999997          0.0000000000000000     
 -0.27399999999999997          0.0000000000000000     
 -0.27099999999999996          0.0000000000000000     
 -0.26799999999999996          0.0000000000000000     
 -0.26499999999999996          0.0000000000000000     
 -0.26199999999999996          0.0000000000000000     
 -0.25899999999999995          0.0000000000000000     
 -0.25599999999999995          0.0000000000000000     
 -0.25300000000000000          0.0000000000000000     
 -0.24999999999999997          0.0000000000000000     
 -0.24699999999999997          0.0000000000000000     
 -0.24399999999999997          0.0000000000000000     
 -0.24099999999999996          0.0000000000000000     
 -0.23799999999999996          0.0000000000000000     
 -0.23499999999999996          0.0000000000000000     
 -0.23199999999999996          0.0000000000000000     
 -0.22899999999999995          0.0000000000000000     
 -0.22599999999999995          0.0000000000000000     
 -0.22299999999999998          0.0000000000000000     
 -0.21999999999999997          0.0000000000000000     
 -0.21699999999999997          0.0000000000000000     
 -0.21399999999999997          0.0000000000000000     
 -0.21099999999999997          0.0000000000000000     
 -0.20799999999999996          0.0000000000000000     
 -0.20499999999999996          0.0000000000000000     
 -0.20199999999999996          0.0000000000000000     
 -0.19899999999999995          0.0000000000000000     
 -0.19599999999999995          0.0000000000000000     
 -0.19299999999999995          0.0000000000000000     
 -0.18999999999999997          0.0000000000000000     
 -0.18699999999999997          0.0000000000000000     
 -0.18399999999999997          0.0000000000000000     
 -0.18099999999999997          0.0000000000000000     
 -0.17799999999999996          0.0000000000000000     
 -0.17499999999999996          0.0000000000000000     
 -0.17199999999999996          0.0000000000000000     
 -0.16899999999999996          0.0000000000000000     
 -0.16599999999999995          0.0000000000000000     
 -0.16299999999999995          0.0000000000000000     
 -0.15999999999999998          0.0000000000000000     
 -0.15699999999999997          0.0000000000000000     
 -0.15399999999999997          0.0000000000000000     
 -0.15099999999999997          0.0000000000000000     
 -0.14799999999999996          0.0000000000000000     
 -0.14499999999999996          0.0000000000000000     
 -0.14199999999999996          0.0000000000000000     
 -0.13899999999999996         -2.2274480495057811E-042
 -0.13599999999999995          0.0000000000000000     
 -0.13299999999999995          7.0949552937044729E-042
 -0.12999999999999995         -5.8046672003340036E-042
 -0.12699999999999995         -2.4304510671923143E-041
 -0.12399999999999994         -6.3229004811995095E-042
 -0.12099999999999994          5.0009046920010595E-041
 -0.11799999999999994         -1.5113120307598068E-042
 -0.11499999999999994         -1.2901917251957205E-040
 -0.11199999999999993          5.7971315771356622E-040
 -0.10899999999999999          2.2632882173283812E-039
 -0.10599999999999998         -3.8630580072675964E-039
 -0.10299999999999998         -2.7500880790765633E-038
  -9.9999999999999978E-002     2.6666782918371397E-039
  -9.6999999999999975E-002     6.8800910447493167E-038
  -9.3999999999999972E-002     1.0548358302580445E-037
  -9.0999999999999970E-002    -5.1998306777544698E-038
  -8.7999999999999967E-002    -3.6389485145045955E-037
  -8.4999999999999964E-002    -3.5709104269531416E-037
  -8.1999999999999962E-002     5.0899323702492863E-037
  -7.8999999999999959E-002     1.7084129277011734E-036
  -7.5999999999999956E-002     1.0299570750192808E-036
  -7.2999999999999954E-002    -3.2275023789613227E-036
  -6.9999999999999951E-002    -7.4872550811851029E-036
  -6.6999999999999948E-002    -2.0884937008871954E-036
  -6.3999999999999946E-002     1.7233124769046707E-035
  -6.0999999999999943E-002     3.1060271753409256E-035
  -5.7999999999999940E-002    -1.7756471131222094E-038
  -5.4999999999999938E-002    -8.2991361226441025E-035
  -5.1999999999999935E-002    -1.2536211203654518E-034
  -4.8999999999999932E-002     2.9180102238829399E-035
  -4.5999999999999985E-002     3.7555598806133482E-034
  -4.2999999999999983E-002     5.0198042970663550E-034
  -3.9999999999999980E-002    -2.0429843420808493E-034
  -3.6999999999999977E-002    -1.6252448012897376E-033
  -3.3999999999999975E-002    -2.0188550008435865E-033
  -3.0999999999999972E-002     1.0082046894240674E-033
  -2.7999999999999969E-002     6.7825367673565068E-033
  -2.4999999999999967E-002     8.2381125475961657E-033
  -2.1999999999999964E-002    -4.0554438669228133E-033
  -1.8999999999999961E-002    -2.7406838678698154E-032
  -1.5999999999999959E-002    -3.4148361793974595E-032
  -1.2999999999999956E-002     1.3252576552128594E-032
  -9.9999999999999534E-003     1.0701022743742573E-031
  -6.9999999999999507E-003     1.4276761140294384E-031
  -3.9999999999999480E-003    -2.9486272467813417E-032
  -9.9999999999994538E-004    -4.0081808911976209E-031
   2.0000000000000573E-003    -5.9469547210098036E-031
   5.0000000000000600E-003    -1.4763246846315659E-032
   8.0000000000000626E-003     1.4213200887976371E-030
   1.1000000000000065E-002     2.4305607393316714E-030
   1.4000000000000068E-002     6.8710205987046931E-031
   1.7000000000000015E-002    -4.6620560301384439E-030
   2.0000000000000018E-002    -9.5868381923113629E-030
   2.3000000000000020E-002    -5.3252646943998448E-030
   2.6000000000000023E-002     1.3527322618960917E-029
   2.9000000000000026E-002     3.5844982351775134E-029
   3.2000000000000028E-002     3.0293418273375331E-029
   3.5000000000000031E-002    -3.1015170655010504E-029
   3.8000000000000034E-002    -1.2429553006788047E-028
   4.1000000000000036E-002    -1.4547352786474429E-028
   4.4000000000000039E-002     3.0780123272199648E-029
   4.7000000000000042E-002     3.8687801100712229E-028
   5.0000000000000044E-002     6.1213326445879219E-028
   5.3000000000000047E-002     2.0626578453815943E-028
   5.6000000000000050E-002    -1.0140491282490515E-027
   5.9000000000000052E-002    -2.2670009772858607E-027
   6.2000000000000055E-002    -1.7817268692228532E-027
   6.5000000000000058E-002     1.8469267578388471E-027
   6.8000000000000060E-002     7.2521318432586643E-027
   7.1000000000000063E-002     8.9888688445556958E-027
   7.4000000000000066E-002     3.5299181583286168E-028
   7.7000000000000068E-002    -1.8927064617161711E-026
   8.0000000000000016E-002    -3.5097277373698235E-026
   8.3000000000000018E-002    -2.3056074722003184E-026
   8.6000000000000021E-002     3.3175914931623988E-026
   8.9000000000000024E-002     1.0979134488067610E-025
   9.2000000000000026E-002     1.3083712593696865E-025
   9.5000000000000029E-002     8.7778204642753182E-027
   9.8000000000000032E-002    -2.5829095402407301E-025
  0.10100000000000003         -4.9504904562820488E-025
  0.10400000000000004         -3.7999134231952994E-025
  0.10700000000000004          3.1674208139465565E-025
  0.11000000000000004          1.3683153963962941E-024
  0.11300000000000004          1.9028631094767049E-024
  0.11600000000000005          7.7746254302308132E-025
  0.11900000000000005         -2.3823545159120098E-024
  0.12200000000000005         -6.0264160612742541E-024
  0.12500000000000006         -6.5790123069889420E-024
  0.12800000000000006         -4.5455298147108525E-025
  0.13100000000000006          1.2095133561454496E-023
  0.13400000000000006          2.3770035907903049E-023
  0.13700000000000007          2.1541784888527717E-023
  0.14000000000000007         -5.0083666033178474E-024
  0.14300000000000007         -5.0897948823501601E-023
  0.14600000000000007         -8.7551865538209122E-023
  0.14900000000000008         -7.0922297978961907E-023
  0.15200000000000008          2.8962986896980743E-023
  0.15500000000000008          1.8825572318690080E-022
  0.15800000000000008          3.0841999258075564E-022
  0.16100000000000009          2.4736216433179665E-022
  0.16400000000000009         -8.7134878310734242E-023
  0.16700000000000009         -6.1883507551617605E-022
  0.17000000000000010         -1.0435612572723598E-021
  0.17300000000000010         -9.1951817093617889E-022
  0.17600000000000010          6.6409699271367831E-023
  0.17899999999999999          1.7558777311123527E-021
  0.18200000000000000          3.3215594476363276E-021
  0.18500000000000000          3.4581949488938727E-021
  0.18800000000000000          1.0548529863495069E-021
  0.19100000000000000         -3.8611706181586131E-021
  0.19400000000000001         -9.4303524268433142E-021
  0.19700000000000001         -1.2144155887888519E-020
  0.20000000000000001         -8.2608676914169054E-021
  0.20300000000000001          3.8312094937156788E-021
  0.20600000000000002          2.1343417886653250E-020
  0.20900000000000002          3.6388636385860216E-020
  0.21200000000000002          3.8058321015602717E-020
  0.21500000000000002          1.7367157441551130E-020
  0.21800000000000003         -2.6462791919673012E-020
  0.22100000000000003         -8.1317844651824262E-020
  0.22400000000000003         -1.2240612819655237E-019
  0.22700000000000004         -1.1941350863901007E-019
  0.23000000000000004         -4.9867061745926728E-020
  0.23300000000000004          8.5469240879572221E-020
  0.23600000000000004          2.5199274785072638E-019
  0.23900000000000005          3.8260963306103131E-019
  0.24200000000000005          3.9525467368851041E-019
  0.24500000000000005          2.2485961378118254E-019
  0.24800000000000005         -1.3921258733399903E-019
  0.25100000000000006         -6.2499164004161599E-019
  0.25400000000000006         -1.0748622241177371E-018
  0.25700000000000006         -1.2781351205933802E-018
  0.26000000000000006         -1.0380791190926283E-018
  0.26300000000000007         -2.5758436449587433E-019
  0.26600000000000007          9.8476944396285808E-019
  0.26900000000000007          2.4009046346509474E-018
  0.27200000000000008          3.5271935474969631E-018
  0.27500000000000008          3.8331961818895257E-018
  0.27800000000000008          2.8871550673974184E-018
  0.28100000000000008          5.3641877890287652E-019
  0.28400000000000009         -2.9532675056292952E-018
  0.28700000000000009         -6.8543782186812373E-018
  0.29000000000000009         -1.0066574172481612E-017
  0.29300000000000009         -1.1342355982329311E-017
  0.29600000000000010         -9.6152244505975433E-018
  0.29900000000000010         -4.3606947655514853E-018
  0.30200000000000010          4.1023427966901568E-018
  0.30499999999999999          1.4464733387969112E-017
  0.30800000000000000          2.4507548741387106E-017
  0.31100000000000000          3.1438402020040863E-017
  0.31400000000000000          3.2452557587262910E-017
  0.31700000000000000          2.5426757973926033E-017
  0.32000000000000001          9.6059953865187267E-018
  0.32300000000000001         -1.3877379257655049E-017
  0.32600000000000001         -4.1799419466074481E-017
  0.32900000000000001         -6.9055294319479209E-017
  0.33200000000000002         -8.9312760771587304E-017
  0.33500000000000002         -9.6052182370855758E-017
  0.33800000000000002         -8.3856136485057711E-017
  0.34100000000000003         -4.9749171741474694E-017
  0.34400000000000003          5.6469891334576622E-018
  0.34700000000000003          7.7377710091680261E-017
  0.35000000000000003          1.5603887836491195E-016
  0.35300000000000004          2.2841205676471628E-016
  0.35600000000000004          2.7889005738105069E-016
  0.35900000000000004          2.9162271483168065E-016
  0.36200000000000004          2.5319580825979564E-016
  0.36500000000000005          1.5554339784459556E-016
  0.36800000000000005         -1.3036331938824005E-018
  0.37100000000000005         -2.0709682346622428E-016
  0.37400000000000005         -4.4036039891419937E-016
  0.37700000000000006         -6.6892780754631659E-016
  0.38000000000000006         -8.5233310636782093E-016
  0.38300000000000006         -9.4615370849416622E-016
  0.38600000000000007         -9.0812091655151357E-016
  0.38900000000000007         -7.0548956065392973E-016
  0.39200000000000007         -3.2283257793252340E-016
  0.39500000000000007          2.3084638669656189E-016
  0.39800000000000008          9.1695528906750633E-016
  0.40100000000000008          1.6653944682444102E-015
  0.40400000000000008          2.3769643468375524E-015
  0.40700000000000008          2.9307847574419834E-015
  0.41000000000000009          3.1968218095772315E-015
  0.41300000000000009          3.0528549786566052E-015
  0.41600000000000009          2.4044355522611728E-015
  0.41900000000000009          1.2056384225281186E-015
  0.42200000000000010         -5.2216802251350937E-016
  0.42500000000000010         -2.6765874900904587E-015
  0.42800000000000010         -5.0684925819010546E-015
  0.43100000000000011         -7.4268238405948393E-015
  0.43400000000000000         -9.4154809315174358E-015
  0.43700000000000000         -1.0662610467490470E-014
  0.44000000000000000         -1.0801088505764366E-014
  0.44300000000000000         -9.5173595384994972E-015
  0.44600000000000001         -6.6043059425548430E-015
  0.44900000000000001         -2.0124319527103268E-015
  0.45200000000000001          4.1070794253018732E-015
  0.45500000000000002          1.1374306609615603E-014
  0.45800000000000002          1.9173833263875960E-014
  0.46100000000000002          2.6674524558303294E-014
  0.46400000000000002          3.2878917007657353E-014
  0.46700000000000003          3.6702667742264845E-014
  0.47000000000000003          3.7081234683462446E-014
  0.47300000000000003          3.3097292343954229E-014
  0.47600000000000003          2.4119098092741868E-014
  0.47900000000000004          9.9366786389406149E-015
  0.48200000000000004         -9.1193985761741391E-015
  0.48500000000000004         -3.2093013324967374E-014
  0.48800000000000004         -5.7367337751974734E-014
  0.49100000000000005         -8.2693383010503944E-014
  0.49400000000000005         -1.0529194596513535E-013
  0.49700000000000005         -1.2203323300726086E-013
  0.50000000000000000         -1.2969054176512520E-013
  0.50300000000000011         -1.2525688548009677E-013
  0.50600000000000001         -1.0630411168165921E-013
  0.50900000000000012         -7.1357003725671684E-014
  0.51200000000000001         -2.0247297673556965E-014
  0.51500000000000012          4.5590732712644994E-014
  0.51800000000000002          1.2292328206448558E-013
  0.52100000000000013          2.0665613783362575E-013
  0.52400000000000002          2.8994069104356058E-013
  0.52700000000000014          3.6446830102272400E-013
  0.53000000000000003          4.2095914856644402E-013
  0.53300000000000014          4.4983648159642911E-013
  0.53600000000000003          4.4205759031364108E-013
  0.53900000000000015          3.9005499228115543E-013
  0.54200000000000004          2.8872264572247701E-013
  0.54500000000000015          1.3636833817307852E-013
  0.54800000000000004         -6.4456879582769086E-014
  0.55100000000000016         -3.0634569764970851E-013
  0.55400000000000005         -5.7672834457418366E-013
  0.55700000000000016         -8.5795129738763351E-013
  0.56000000000000005         -1.1277992608569853E-012
  0.56299999999999994         -1.3604978601112026E-012
  0.56600000000000006         -1.5281860780804333E-012
  0.56899999999999995         -1.6028280760561598E-012
  0.57200000000000006         -1.5584753411500837E-012
  0.57499999999999996         -1.3737577168719509E-012
  0.57800000000000007         -1.0344434902811842E-012
  0.58099999999999996         -5.3587766684606762E-013
  0.58400000000000007          1.1491649111257402E-013
  0.58699999999999997          8.9768254051138830E-013
  0.59000000000000008          1.7781418338507754E-012
  0.59299999999999997          2.7081462566085727E-012
  0.59600000000000009          3.6269139475457602E-012
  0.59899999999999998          4.4634347517631278E-012
  0.60200000000000009          5.1400591853493556E-012
  0.60500000000000020          5.5771800920183759E-012
  0.60800000000000010          5.6988752654447058E-012
  0.61100000000000021          5.4392438208839080E-012
  0.61400000000000010          4.7491139872796929E-012
  0.61700000000000021          3.6027337826469993E-012
  0.62000000000000011          2.0039898296986037E-012
  0.62300000000000022         -8.3057541164392386E-015
  0.62600000000000011         -2.3565411100374258E-012
  0.62900000000000000         -4.9222761744325530E-012
  0.63200000000000012         -7.5464287530312945E-012
  0.63500000000000001         -1.0031967159571473E-011
  0.63800000000000012         -1.2149274682796947E-011
  0.64100000000000001         -1.3644205122157955E-011
  0.64400000000000013         -1.4248678003028682E-011
  0.64700000000000002         -1.3693580928495612E-011
  0.65000000000000013         -1.1723449103822574E-011
  0.65300000000000002         -8.1124354030340358E-012
  0.65600000000000014         -2.6807999989755445E-012
  0.65900000000000003          4.6887960936432092E-012
  0.66200000000000014          1.4036020561118696E-011
  0.66500000000000004          2.5309367310795690E-011
  0.66800000000000015          3.8355225618109963E-011
  0.67100000000000004          5.2909944913673973E-011
  0.67400000000000015          6.8595504159046014E-011
  0.67700000000000005          8.4918823891088446E-011
  0.68000000000000016          1.0127455222666962E-010
  0.68300000000000005          1.1695123571124873E-010
  0.68600000000000017          1.3113972393704868E-010
  0.68900000000000006          1.4294349216150810E-010
  0.69200000000000017          1.5138868772969888E-010
  0.69500000000000006          1.5543317747050239E-010
  0.69800000000000018          1.5397246338909544E-010
  0.70100000000000007          1.4584033746602817E-010
  0.70400000000000018          1.2980292048788551E-010
  0.70700000000000007          1.0454306357183106E-010
  0.71000000000000019          6.8633899056518080E-011
  0.71300000000000008          2.0498810742681249E-011
  0.71600000000000019         -4.1642776126874149E-011
  0.71900000000000008         -1.1984775437880381E-010
  0.72200000000000020         -2.1653784672222860E-010
  0.72500000000000009         -3.3460930290160316E-010
  0.72800000000000020         -4.7756220823457476E-010
  0.73100000000000009         -6.4965132821233413E-010
  0.73400000000000021         -8.5606141785735133E-010
  0.73700000000000010         -1.1031007560391581E-009
  0.74000000000000021         -1.3984254275812732E-009
  0.74300000000000010         -1.7512810444719314E-009
  0.74600000000000022         -2.1727806147799575E-009
  0.74900000000000011         -2.6761961828303005E-009
  0.75200000000000022         -3.2773032558188757E-009
  0.75500000000000012         -3.9947305141876684E-009
  0.75800000000000001         -4.8503691963069833E-009
  0.76100000000000012         -5.8697950843119529E-009
  0.76400000000000001         -7.0827730471479268E-009
  0.76700000000000013         -8.5237582382614094E-009
  0.77000000000000002         -1.0232484318322807E-008
  0.77300000000000013         -1.2254612514513941E-008
  0.77600000000000002         -1.4642394725665235E-008
  0.77900000000000014         -1.7455471867261002E-008
  0.78200000000000003         -2.0761674715438778E-008
  0.78500000000000014         -2.4637950970657465E-008
  0.78800000000000003         -2.9171276211589759E-008
  0.79100000000000015         -3.4459789746230840E-008
  0.79400000000000004         -4.0613881073894943E-008
  0.79700000000000015         -4.7757381971571303E-008
  0.80000000000000004         -5.6028819339623985E-008
  0.80300000000000016         -6.5582831077985061E-008
  0.80600000000000005         -7.6591330811432437E-008
  0.80900000000000016         -8.9245191558792897E-008
  0.81200000000000006         -1.0375537945476137E-007
  0.81500000000000017         -1.2035473802179884E-007
  0.81800000000000006         -1.3929902291745999E-007
  0.82100000000000017         -1.6086848970262207E-007
  0.82400000000000007         -1.8536904123953985E-007
  0.82700000000000018         -2.1313344568906885E-007
  0.83000000000000007         -2.4452283852882627E-007
  0.83300000000000018         -2.7992630284745644E-007
  0.83600000000000008         -3.1976294902957898E-007
  0.83900000000000019         -3.6448093606424877E-007
  0.84200000000000008         -4.1455797056614250E-007
  0.84500000000000020         -4.7050126608185856E-007
  0.84800000000000009         -5.3284597338759880E-007
  0.85100000000000020         -6.0215419214335968E-007
  0.85400000000000009         -6.7901247079909459E-007
  0.85700000000000021         -7.6402938331046169E-007
  0.86000000000000010         -8.5783305068887887E-007
  0.86300000000000021         -9.6106594636477424E-007
  0.86600000000000010         -1.0743799242114244E-006
  0.86900000000000022         -1.1984308987890081E-006
  0.87200000000000011         -1.3338733812994161E-006
  0.87500000000000022         -1.4813509907963073E-006
  0.87800000000000011         -1.6414878818894941E-006
  0.88100000000000001         -1.8148800798813262E-006
  0.88400000000000012         -2.0020857765045262E-006
  0.88700000000000001         -2.2036100009664165E-006
  0.89000000000000012         -2.4198965956129312E-006
  0.89300000000000002         -2.6513120321154315E-006
  0.89600000000000013         -2.8981316769868061E-006
  0.89900000000000002         -3.1605238174872349E-006
  0.90200000000000014         -3.4385357486611459E-006
  0.90500000000000003         -3.7320767982751842E-006
  0.90800000000000014         -4.0409014441605986E-006
  0.91100000000000003         -4.3645898913676974E-006
  0.91400000000000015         -4.7025402557992547E-006
  0.91700000000000004         -5.0539411445792725E-006
  0.92000000000000015         -5.4177625432779592E-006
  0.92300000000000004         -5.7927414626194008E-006
  0.92600000000000016         -6.1773677521542653E-006
  0.92900000000000005         -6.5698685928863878E-006
  0.93200000000000016         -6.9682025883796860E-006
  0.93500000000000005         -7.3700539912649329E-006
  0.93800000000000017         -7.7728248481361401E-006
  0.94100000000000006         -8.1736289701232389E-006
  0.94400000000000017         -8.5693035786866696E-006
  0.94700000000000006         -8.9564044340774689E-006
  0.95000000000000018         -9.3312286770359704E-006
  0.95300000000000007         -9.6898054017006271E-006
  0.95600000000000018         -1.0027941847842502E-005
  0.95900000000000007         -1.0341222566003215E-005
  0.96200000000000019         -1.0625047452060570E-005
  0.96500000000000008         -1.0874676732362737E-005
  0.96800000000000019         -1.1085238414680027E-005
  0.97100000000000009         -1.1251791610622489E-005
  0.97400000000000020         -1.1369372794040669E-005
  0.97700000000000009         -1.1433036761019485E-005
  0.98000000000000020         -1.1437931586629331E-005
  0.98300000000000010         -1.1379339193465452E-005
  0.98600000000000021         -1.1252725009323827E-005
  0.98900000000000010         -1.1053843398886750E-005
  0.99200000000000021         -1.0778772595215464E-005
  0.99500000000000011         -1.0423972059508815E-005
  0.99800000000000022         -9.9863853367537864E-006
   1.0010000000000001         -9.4634808105067779E-006
   1.0040000000000002         -8.8533224614349375E-006
   1.0070000000000001         -8.1546199802531899E-006
   1.0100000000000000         -7.3668324376328879E-006
   1.0130000000000001         -6.4901390888333451E-006
   1.0160000000000000         -5.5255526782361034E-006
   1.0190000000000001         -4.4749355317875327E-006
   1.0220000000000000         -3.3410448863034752E-006
   1.0250000000000001         -2.1275227011143397E-006
   1.0280000000000000         -8.3893887958580230E-007
   1.0310000000000001          5.1921622792093650E-007
   1.0340000000000000          1.9405450684693811E-006
   1.0370000000000001          3.4177588306911895E-006
   1.0400000000000000          4.9427119234817435E-006
   1.0430000000000001          6.5064485297295862E-006
   1.0460000000000000          8.0992390291768396E-006
   1.0490000000000002          9.7107052594624857E-006
   1.0520000000000000          1.1329819997615927E-005
   1.0550000000000002          1.2945073590999384E-005
   1.0580000000000001          1.4544536074575115E-005
   1.0610000000000002          1.6115951966710888E-005
   1.0640000000000001          1.7646894978678604E-005
   1.0670000000000002          1.9124871024385565E-005
   1.0700000000000001          2.0537461146214222E-005
   1.0730000000000002          2.1872430585343568E-005
   1.0760000000000001          2.3117899228207361E-005
   1.0790000000000002          2.4262439130068001E-005
   1.0820000000000001          2.5295227961545969E-005
   1.0850000000000002          2.6206172902138637E-005
   1.0880000000000001          2.6986036422580537E-005
   1.0910000000000002          2.7626561073416788E-005
   1.0940000000000001          2.8120564704282984E-005
   1.0970000000000002          2.8462030262864754E-005
